  25  25   0   0
  0.1047923E+04  0.2970000E-08  0.2970000E-08  0.2970000E-08  0.5000000E-15
  1.000000000000000E-004
  CAR 
 unknown system                          
      2.66240506    -11.92466410  301     -3.84945163      1.00000000
    -11.925  0.0000E+00  0.0000E+00
    -11.876  0.0000E+00  0.0000E+00
    -11.827  0.0000E+00  0.0000E+00
    -11.779  0.0000E+00  0.0000E+00
    -11.730  0.0000E+00  0.0000E+00
    -11.682  0.0000E+00  0.0000E+00
    -11.633  0.0000E+00  0.0000E+00
    -11.584  0.0000E+00  0.0000E+00
    -11.536  0.0000E+00  0.0000E+00
    -11.487  0.0000E+00  0.0000E+00
    -11.438  0.0000E+00  0.0000E+00
    -11.390  0.0000E+00  0.0000E+00
    -11.341  0.0000E+00  0.0000E+00
    -11.293  0.0000E+00  0.0000E+00
    -11.244  0.0000E+00  0.0000E+00
    -11.195  0.0000E+00  0.0000E+00
    -11.147  0.0000E+00  0.0000E+00
    -11.098  0.2283E-14  0.1110E-15
    -11.049  0.3425E-13  0.1776E-14
    -11.001  0.5297E-12  0.2753E-13
    -10.952  0.7065E-11  0.3710E-12
    -10.904  0.8401E-10  0.4456E-11
    -10.855  0.8884E-09  0.4765E-10
    -10.806  0.8355E-08  0.4539E-09
    -10.758  0.6988E-07  0.3852E-08
    -10.709  0.5198E-06  0.2912E-07
    -10.660  0.3438E-05  0.1963E-06
    -10.612  0.2023E-04  0.1180E-05
    -10.563  0.1059E-03  0.6327E-05
    -10.515  0.4927E-03  0.3028E-04
    -10.466  0.2039E-02  0.1294E-03
    -10.417  0.7509E-02  0.4945E-03
    -10.369  0.2459E-01  0.1690E-02
    -10.320  0.7163E-01  0.5173E-02
    -10.271  0.1856E+00  0.1420E-01
    -10.223  0.4277E+00  0.3500E-01
    -10.174  0.8769E+00  0.7763E-01
    -10.126  0.1599E+01  0.1554E+00
    -10.077  0.2594E+01  0.2815E+00
    -10.028  0.3745E+01  0.4636E+00
     -9.980  0.4812E+01  0.6976E+00
     -9.931  0.5516E+01  0.9658E+00
     -9.882  0.5672E+01  0.1242E+01
     -9.834  0.5333E+01  0.1501E+01
     -9.785  0.4838E+01  0.1736E+01
     -9.737  0.4772E+01  0.1968E+01
     -9.688  0.5843E+01  0.2252E+01
     -9.639  0.8710E+01  0.2676E+01
     -9.591  0.1376E+02  0.3345E+01
     -9.542  0.2085E+02  0.4359E+01
     -9.493  0.2915E+02  0.5776E+01
     -9.445  0.3721E+02  0.7585E+01
     -9.396  0.4344E+02  0.9698E+01
     -9.348  0.4676E+02  0.1197E+02
     -9.299  0.4711E+02  0.1426E+02
     -9.250  0.4546E+02  0.1647E+02
     -9.202  0.4326E+02  0.1858E+02
     -9.153  0.4180E+02  0.2061E+02
     -9.104  0.4165E+02  0.2263E+02
     -9.056  0.4273E+02  0.2471E+02
     -9.007  0.4470E+02  0.2688E+02
     -8.959  0.4734E+02  0.2919E+02
     -8.910  0.5077E+02  0.3166E+02
     -8.861  0.5516E+02  0.3434E+02
     -8.813  0.6047E+02  0.3728E+02
     -8.764  0.6619E+02  0.4050E+02
     -8.716  0.7155E+02  0.4398E+02
     -8.667  0.7578E+02  0.4766E+02
     -8.618  0.7849E+02  0.5148E+02
     -8.570  0.7990E+02  0.5536E+02
     -8.521  0.8075E+02  0.5929E+02
     -8.472  0.8194E+02  0.6327E+02
     -8.424  0.8421E+02  0.6737E+02
     -8.375  0.8787E+02  0.7164E+02
     -8.327  0.9276E+02  0.7615E+02
     -8.278  0.9851E+02  0.8094E+02
     -8.229  0.1048E+03  0.8603E+02
     -8.181  0.1112E+03  0.9144E+02
     -8.132  0.1172E+03  0.9713E+02
     -8.083  0.1218E+03  0.1031E+03
     -8.035  0.1239E+03  0.1091E+03
     -7.986  0.1222E+03  0.1150E+03
     -7.938  0.1165E+03  0.1207E+03
     -7.889  0.1072E+03  0.1259E+03
     -7.840  0.9600E+02  0.1306E+03
     -7.792  0.8465E+02  0.1347E+03
     -7.743  0.7501E+02  0.1383E+03
     -7.694  0.6846E+02  0.1417E+03
     -7.646  0.6583E+02  0.1449E+03
     -7.597  0.6733E+02  0.1481E+03
     -7.549  0.7258E+02  0.1517E+03
     -7.500  0.8070E+02  0.1556E+03
     -7.451  0.9042E+02  0.1600E+03
     -7.403  0.1005E+03  0.1649E+03
     -7.354  0.1100E+03  0.1702E+03
     -7.305  0.1187E+03  0.1760E+03
     -7.257  0.1269E+03  0.1822E+03
     -7.208  0.1351E+03  0.1887E+03
     -7.160  0.1431E+03  0.1957E+03
     -7.111  0.1502E+03  0.2030E+03
     -7.062  0.1547E+03  0.2105E+03
     -7.014  0.1550E+03  0.2180E+03
     -6.965  0.1498E+03  0.2253E+03
     -6.916  0.1389E+03  0.2321E+03
     -6.868  0.1232E+03  0.2381E+03
     -6.819  0.1043E+03  0.2431E+03
     -6.771  0.8433E+02  0.2472E+03
     -6.722  0.6524E+02  0.2504E+03
     -6.673  0.4848E+02  0.2528E+03
     -6.625  0.3484E+02  0.2545E+03
     -6.576  0.2446E+02  0.2557E+03
     -6.527  0.1694E+02  0.2565E+03
     -6.479  0.1161E+02  0.2570E+03
     -6.430  0.7837E+01  0.2574E+03
     -6.382  0.5128E+01  0.2577E+03
     -6.333  0.3215E+01  0.2578E+03
     -6.284  0.1976E+01  0.2579E+03
     -6.236  0.1361E+01  0.2580E+03
     -6.187  0.1355E+01  0.2581E+03
     -6.138  0.1971E+01  0.2582E+03
     -6.090  0.3209E+01  0.2583E+03
     -6.041  0.4993E+01  0.2586E+03
     -5.993  0.7100E+01  0.2589E+03
     -5.944  0.9154E+01  0.2593E+03
     -5.895  0.1073E+02  0.2599E+03
     -5.847  0.1155E+02  0.2604E+03
     -5.798  0.1159E+02  0.2610E+03
     -5.749  0.1109E+02  0.2615E+03
     -5.701  0.1045E+02  0.2620E+03
     -5.652  0.9963E+01  0.2625E+03
     -5.604  0.9733E+01  0.2630E+03
     -5.555  0.9665E+01  0.2635E+03
     -5.506  0.9565E+01  0.2639E+03
     -5.458  0.9233E+01  0.2644E+03
     -5.409  0.8535E+01  0.2648E+03
     -5.360  0.7437E+01  0.2652E+03
     -5.312  0.6025E+01  0.2655E+03
     -5.263  0.4484E+01  0.2657E+03
     -5.215  0.3037E+01  0.2658E+03
     -5.166  0.1858E+01  0.2659E+03
     -5.117  0.1023E+01  0.2660E+03
     -5.069  0.5069E+00  0.2660E+03
     -5.020  0.2344E+00  0.2660E+03
     -4.971  0.1274E+00  0.2660E+03
     -4.923  0.1433E+00  0.2660E+03
     -4.874  0.2903E+00  0.2660E+03
     -4.826  0.6268E+00  0.2661E+03
     -4.777  0.1243E+01  0.2661E+03
     -4.728  0.2221E+01  0.2662E+03
     -4.680  0.3579E+01  0.2664E+03
     -4.631  0.5227E+01  0.2666E+03
     -4.583  0.6965E+01  0.2670E+03
     -4.534  0.8544E+01  0.2674E+03
     -4.485  0.9762E+01  0.2679E+03
     -4.437  0.1055E+02  0.2684E+03
     -4.388  0.1101E+02  0.2689E+03
     -4.339  0.1134E+02  0.2695E+03
     -4.291  0.1175E+02  0.2700E+03
     -4.242  0.1228E+02  0.2706E+03
     -4.194  0.1275E+02  0.2713E+03
     -4.145  0.1285E+02  0.2719E+03
     -4.096  0.1233E+02  0.2725E+03
     -4.048  0.1127E+02  0.2730E+03
     -3.999  0.1007E+02  0.2735E+03
     -3.950  0.9325E+01  0.2740E+03
     -3.902  0.9480E+01  0.2744E+03
     -3.853  0.1060E+02  0.2750E+03
     -3.805  0.1231E+02  0.2756E+03
     -3.756  0.1404E+02  0.2762E+03
     -3.707  0.1524E+02  0.2770E+03
     -3.659  0.1566E+02  0.2777E+03
     -3.610  0.1535E+02  0.2785E+03
     -3.561  0.1449E+02  0.2792E+03
     -3.513  0.1325E+02  0.2798E+03
     -3.464  0.1172E+02  0.2804E+03
     -3.416  0.9922E+01  0.2809E+03
     -3.367  0.7963E+01  0.2813E+03
     -3.318  0.6034E+01  0.2816E+03
     -3.270  0.4401E+01  0.2818E+03
     -3.221  0.3318E+01  0.2819E+03
     -3.172  0.2935E+01  0.2821E+03
     -3.124  0.3241E+01  0.2822E+03
     -3.075  0.4061E+01  0.2824E+03
     -3.027  0.5100E+01  0.2827E+03
     -2.978  0.6056E+01  0.2830E+03
     -2.929  0.6748E+01  0.2833E+03
     -2.881  0.7201E+01  0.2837E+03
     -2.832  0.7615E+01  0.2840E+03
     -2.783  0.8230E+01  0.2844E+03
     -2.735  0.9182E+01  0.2849E+03
     -2.686  0.1044E+02  0.2854E+03
     -2.638  0.1185E+02  0.2860E+03
     -2.589  0.1322E+02  0.2866E+03
     -2.540  0.1441E+02  0.2873E+03
     -2.492  0.1535E+02  0.2881E+03
     -2.443  0.1608E+02  0.2888E+03
     -2.394  0.1671E+02  0.2896E+03
     -2.346  0.1742E+02  0.2905E+03
     -2.297  0.1834E+02  0.2914E+03
     -2.249  0.1948E+02  0.2923E+03
     -2.200  0.2065E+02  0.2933E+03
     -2.151  0.2153E+02  0.2944E+03
     -2.103  0.2180E+02  0.2954E+03
     -2.054  0.2123E+02  0.2965E+03
     -2.005  0.1984E+02  0.2974E+03
     -1.957  0.1791E+02  0.2983E+03
     -1.908  0.1586E+02  0.2991E+03
     -1.860  0.1420E+02  0.2998E+03
     -1.811  0.1328E+02  0.3004E+03
     -1.762  0.1321E+02  0.3011E+03
     -1.714  0.1379E+02  0.3017E+03
     -1.665  0.1459E+02  0.3024E+03
     -1.616  0.1511E+02  0.3032E+03
     -1.568  0.1495E+02  0.3039E+03
     -1.519  0.1398E+02  0.3046E+03
     -1.471  0.1245E+02  0.3052E+03
     -1.422  0.1079E+02  0.3057E+03
     -1.373  0.9434E+01  0.3062E+03
     -1.325  0.8607E+01  0.3066E+03
     -1.276  0.8302E+01  0.3070E+03
     -1.227  0.8437E+01  0.3074E+03
     -1.179  0.9019E+01  0.3078E+03
     -1.130  0.1018E+02  0.3083E+03
     -1.082  0.1203E+02  0.3089E+03
     -1.033  0.1456E+02  0.3096E+03
     -0.984  0.1746E+02  0.3105E+03
     -0.936  0.2026E+02  0.3115E+03
     -0.887  0.2246E+02  0.3126E+03
     -0.838  0.2367E+02  0.3137E+03
     -0.790  0.2372E+02  0.3149E+03
     -0.741  0.2271E+02  0.3160E+03
     -0.693  0.2098E+02  0.3170E+03
     -0.644  0.1898E+02  0.3179E+03
     -0.595  0.1722E+02  0.3187E+03
     -0.547  0.1605E+02  0.3195E+03
     -0.498  0.1563E+02  0.3203E+03
     -0.450  0.1582E+02  0.3211E+03
     -0.401  0.1629E+02  0.3218E+03
     -0.352  0.1663E+02  0.3227E+03
     -0.304  0.1657E+02  0.3235E+03
     -0.255  0.1607E+02  0.3242E+03
     -0.206  0.1536E+02  0.3250E+03
     -0.158  0.1484E+02  0.3257E+03
     -0.109  0.1497E+02  0.3264E+03
     -0.061  0.1611E+02  0.3272E+03
     -0.012  0.1849E+02  0.3281E+03
      0.037  0.2225E+02  0.3292E+03
      0.085  0.2750E+02  0.3305E+03
      0.134  0.3433E+02  0.3322E+03
      0.183  0.4283E+02  0.3343E+03
      0.231  0.5302E+02  0.3369E+03
      0.280  0.6467E+02  0.3400E+03
      0.328  0.7717E+02  0.3438E+03
      0.377  0.8935E+02  0.3481E+03
      0.426  0.9955E+02  0.3530E+03
      0.474  0.1059E+03  0.3581E+03
      0.523  0.1067E+03  0.3633E+03
      0.572  0.1014E+03  0.3682E+03
      0.620  0.9032E+02  0.3726E+03
      0.669  0.7507E+02  0.3763E+03
      0.717  0.5795E+02  0.3791E+03
      0.766  0.4134E+02  0.3811E+03
      0.815  0.2711E+02  0.3824E+03
      0.863  0.1627E+02  0.3832E+03
      0.912  0.8892E+01  0.3836E+03
      0.961  0.4406E+01  0.3838E+03
      1.009  0.1973E+01  0.3839E+03
      1.058  0.7955E+00  0.3840E+03
      1.106  0.2882E+00  0.3840E+03
      1.155  0.9364E-01  0.3840E+03
      1.204  0.2724E-01  0.3840E+03
      1.252  0.7085E-02  0.3840E+03
      1.301  0.1646E-02  0.3840E+03
      1.350  0.3414E-03  0.3840E+03
      1.398  0.6318E-04  0.3840E+03
      1.447  0.1042E-04  0.3840E+03
      1.495  0.1532E-05  0.3840E+03
      1.544  0.2008E-06  0.3840E+03
      1.593  0.2343E-07  0.3840E+03
      1.641  0.2435E-08  0.3840E+03
      1.690  0.2253E-09  0.3840E+03
      1.739  0.1856E-10  0.3840E+03
      1.787  0.1356E-11  0.3840E+03
      1.836  0.9590E-13  0.3840E+03
      1.884  0.0000E+00  0.3840E+03
      1.933  0.0000E+00  0.3840E+03
      1.982  0.0000E+00  0.3840E+03
      2.030  0.0000E+00  0.3840E+03
      2.079  0.0000E+00  0.3840E+03
      2.128  0.0000E+00  0.3840E+03
      2.176  0.0000E+00  0.3840E+03
      2.225  0.0000E+00  0.3840E+03
      2.273  0.0000E+00  0.3840E+03
      2.322  0.0000E+00  0.3840E+03
      2.371  0.0000E+00  0.3840E+03
      2.419  0.0000E+00  0.3840E+03
      2.468  0.0000E+00  0.3840E+03
      2.517  0.0000E+00  0.3840E+03
      2.565  0.0000E+00  0.3840E+03
      2.614  0.0000E+00  0.3840E+03
      2.662  0.0000E+00  0.3840E+03
