       N       E                     dE             d eps       ncg     rms          rms(c)
DAV:   1     0.245063531063E+04    0.24506E+04   -0.46502E+04   384   0.676E+02
DAV:   2     0.842732892930E+03   -0.16079E+04   -0.15601E+04   768   0.782E+01
DAV:   3    -0.185061996737E+02   -0.86124E+03   -0.83966E+03   576   0.884E+01
DAV:   4    -0.539506574769E+02   -0.35444E+02   -0.35415E+02   384   0.316E+01
DAV:   5    -0.542917328711E+02   -0.34108E+00   -0.34107E+00   576   0.326E+00    0.161E+01
DAV:   6    -0.506129922132E+02    0.36787E+01   -0.12885E+01   576   0.894E+00    0.104E+01
DAV:   7    -0.503607450585E+02    0.25225E+00   -0.97843E-01   576   0.159E+00    0.517E+00
DAV:   8    -0.503207385886E+02    0.40006E-01   -0.98778E-02   672   0.681E-01    0.504E-01
DAV:   9    -0.503183706196E+02    0.23680E-02   -0.88177E-03   672   0.327E-01    0.161E-01
DAV:  10    -0.503182230378E+02    0.14758E-03   -0.98953E-04   672   0.992E-02    0.993E-02
DAV:  11    -0.503189289596E+02   -0.70592E-03   -0.18472E-03   480   0.636E-02    0.465E-02
DAV:  12    -0.503203803612E+02   -0.14514E-02   -0.61519E-04   576   0.368E-02    0.308E-02
DAV:  13    -0.503227660888E+02   -0.23857E-02   -0.39348E-04   384   0.242E-02    0.188E-02
DAV:  14    -0.503247536254E+02   -0.19875E-02   -0.27659E-04   576   0.163E-02    0.104E-02
DAV:  15    -0.503259057528E+02   -0.11521E-02   -0.58959E-05   384   0.850E-03    0.591E-03
DAV:  16    -0.503267307651E+02   -0.82501E-03   -0.41248E-05   576   0.488E-03    0.363E-03
DAV:  17    -0.503273086013E+02   -0.57784E-03   -0.16546E-05   480   0.357E-03    0.184E-03
DAV:  18    -0.503275646814E+02   -0.25608E-03   -0.75131E-06   480   0.198E-03    0.118E-03
DAV:  19    -0.503277064917E+02   -0.14181E-03   -0.36347E-06   384   0.113E-03    0.584E-04
DAV:  20    -0.503277861615E+02   -0.79670E-04   -0.21491E-06   480   0.773E-04    0.367E-04
DAV:  21    -0.503278283676E+02   -0.42206E-04   -0.97324E-07   288   0.546E-04    0.184E-04
DAV:  22    -0.503278444713E+02   -0.16104E-04   -0.12918E-07   480   0.318E-04    0.108E-04
DAV:  23    -0.503278511406E+02   -0.66693E-05    0.12670E-07   384   0.178E-04    0.578E-05
DAV:  24    -0.503278543946E+02   -0.32540E-05    0.16889E-07   480   0.126E-04    0.342E-05
DAV:  25    -0.503278557477E+02   -0.13532E-05    0.19399E-07   480   0.805E-05    0.197E-05
DAV:  26    -0.503278561907E+02   -0.44291E-06    0.20047E-07   480   0.462E-05
   1 F= -.50327856E+02 E0= -.50212501E+02  d E =-.230710E+00
