<?xml version="1.0" encoding="ISO-8859-1"?>
<modeling>
 <generator>
  <i name="program" type="string">vasp </i>
  <i name="version" type="string">6.3.0  </i>
  <i name="subversion" type="string">20Jan22 (build Jul 12 2024 16:06:18) gamma-only                       parallel </i>
  <i name="platform" type="string">LinuxIFC </i>
  <i name="date" type="string">2024 10 29 </i>
  <i name="time" type="string">18:45:20 </i>
 </generator>
 <incar>
  <i type="string" name="PREC">Accurate</i>
  <i type="int" name="IBRION">    -1</i>
  <i name="EDIFF">      0.00000100</i>
  <i name="EDIFFG">     -0.04000000</i>
  <i type="int" name="NSW">     0</i>
  <i name="ENCUT">    400.00000000</i>
  <i type="string" name="LREAL">Auto</i>
  <i type="int" name="ISMEAR">     0</i>
  <i name="SIGMA">      0.20000000</i>
  <i type="logical" name="LWAVE"> F  </i>
  <i type="logical" name="LCHARG"> F  </i>
  <i type="logical" name="LSCALAPACK"> F  </i>
  <i type="string" name="GGA">PE</i>
 </incar>
 <primitive_cell>
  <structure name="primitive_cell" >
   <crystal>
    <varray name="basis" >
     <v>      29.70000000       0.00000000       0.00000000 </v>
     <v>       0.00000000      29.70000000       0.00000000 </v>
     <v>       0.00000000       0.00000000      29.70000000 </v>
    </varray>
    <i name="volume">  26198.07300000 </i>
    <varray name="rec_basis" >
     <v>       0.03367003       0.00000000       0.00000000 </v>
     <v>       0.00000000       0.03367003       0.00000000 </v>
     <v>       0.00000000       0.00000000       0.03367003 </v>
    </varray>
   </crystal>
   <varray name="positions" >
    <v>       0.46548822       0.50000000       0.50000000 </v>
    <v>       0.53451178       0.50000000       0.43097643 </v>
    <v>       0.53451178       0.43097643       0.50000000 </v>
    <v>       0.53451178       0.56902357       0.50000000 </v>
    <v>       0.53451178       0.50000000       0.56902357 </v>
    <v>       0.39646465       0.50000000       0.43097643 </v>
    <v>       0.46548822       0.56902357       0.43097643 </v>
    <v>       0.46548822       0.43097643       0.43097643 </v>
    <v>       0.39646465       0.43097643       0.50000000 </v>
    <v>       0.46548822       0.43097643       0.56902357 </v>
    <v>       0.46548822       0.50000000       0.36195286 </v>
    <v>       0.46548822       0.36195286       0.50000000 </v>
    <v>       0.60353535       0.50000000       0.50000000 </v>
    <v>       0.60353535       0.43097643       0.43097643 </v>
    <v>       0.53451178       0.43097643       0.36195286 </v>
    <v>       0.53451178       0.36195286       0.43097643 </v>
    <v>       0.39646465       0.56902357       0.50000000 </v>
    <v>       0.39646465       0.50000000       0.56902357 </v>
    <v>       0.46548822       0.56902357       0.56902357 </v>
    <v>       0.46548822       0.50000000       0.63804714 </v>
    <v>       0.60353535       0.56902357       0.43097643 </v>
    <v>       0.60353535       0.50000000       0.36195286 </v>
    <v>       0.53451178       0.56902357       0.36195286 </v>
    <v>       0.46548822       0.63804714       0.50000000 </v>
    <v>       0.53451178       0.63804714       0.43097643 </v>
   </varray>
  </structure>
  <varray name="primitive_index" >
   <v type="int" >        1 </v>
   <v type="int" >        2 </v>
   <v type="int" >        3 </v>
   <v type="int" >        4 </v>
   <v type="int" >        5 </v>
   <v type="int" >        6 </v>
   <v type="int" >        7 </v>
   <v type="int" >        8 </v>
   <v type="int" >        9 </v>
   <v type="int" >       10 </v>
   <v type="int" >       11 </v>
   <v type="int" >       12 </v>
   <v type="int" >       13 </v>
   <v type="int" >       14 </v>
   <v type="int" >       15 </v>
   <v type="int" >       16 </v>
   <v type="int" >       17 </v>
   <v type="int" >       18 </v>
   <v type="int" >       19 </v>
   <v type="int" >       20 </v>
   <v type="int" >       21 </v>
   <v type="int" >       22 </v>
   <v type="int" >       23 </v>
   <v type="int" >       24 </v>
   <v type="int" >       25 </v>
  </varray>
 </primitive_cell>
 <kpoints>
  <generation param="Monkhorst-Pack">
   <v type="int" name="divisions">       1        1        1 </v>
   <v name="usershift">      0.00000000       0.00000000       0.00000000 </v>
   <v name="genvec1">      1.00000000       0.00000000       0.00000000 </v>
   <v name="genvec2">      0.00000000       1.00000000       0.00000000 </v>
   <v name="genvec3">      0.00000000       0.00000000       1.00000000 </v>
   <v name="shift">      0.00000000       0.00000000       0.00000000 </v>
  </generation>
  <varray name="kpointlist" >
   <v>       0.00000000       0.00000000       0.00000000 </v>
  </varray>
  <varray name="weights" >
   <v>       1.00000000 </v>
  </varray>
 </kpoints>
 <parameters>
  <separator name="general" >
   <i type="string" name="SYSTEM">unknown system</i>
   <i type="logical" name="LCOMPAT"> F  </i>
  </separator>
  <separator name="electronic" >
   <i type="string" name="PREC">accura</i>
   <i name="ENMAX">    400.00000000</i>
   <i name="ENAUG">    412.49600000</i>
   <i name="EDIFF">      0.00000100</i>
   <i type="int" name="IALGO">    38</i>
   <i type="int" name="IWAVPR">    10</i>
   <i type="int" name="NBANDS">   192</i>
   <i type="int" name="NBANDSLOW">    -1</i>
   <i type="int" name="NBANDSHIGH">    -1</i>
   <i name="NELECT">    275.00000000</i>
   <i type="int" name="TURBO">     0</i>
   <i type="int" name="IRESTART">     0</i>
   <i type="int" name="NREBOOT">     0</i>
   <i type="int" name="NMIN">     0</i>
   <i name="EREF">      0.00000000</i>
   <separator name="electronic smearing" >
    <i type="int" name="ISMEAR">     0</i>
    <i name="SIGMA">      0.20000000</i>
    <i name="KSPACING">      0.50000000</i>
    <i type="logical" name="KGAMMA"> T  </i>
    <i type="logical" name="KBLOWUP"> T  </i>
   </separator>
   <separator name="electronic projectors" >
    <i type="logical" name="LREAL"> T  </i>
    <v name="ROPT">     -0.00025000</v>
    <i type="int" name="LMAXPAW">  -100</i>
    <i type="int" name="LMAXMIX">     2</i>
    <i type="logical" name="NLSPLINE"> F  </i>
   </separator>
   <separator name="electronic startup" >
    <i type="int" name="ISTART">     0</i>
    <i type="int" name="ICHARG">     2</i>
    <i type="int" name="INIWAV">     1</i>
   </separator>
   <separator name="electronic spin" >
    <i type="int" name="ISPIN">     1</i>
    <i type="logical" name="LNONCOLLINEAR"> F  </i>
    <v name="MAGMOM">      1.00000000      1.00000000      1.00000000      1.00000000      1.00000000      1.00000000      1.00000000      1.00000000      1.00000000      1.00000000      1.00000000      1.00000000      1.00000000      1.00000000      1.00000000      1.00000000      1.00000000      1.00000000      1.00000000      1.00000000
      1.00000000      1.00000000      1.00000000      1.00000000      1.00000000</v>
    <i name="NUPDOWN">     -1.00000000</i>
    <i type="logical" name="LSORBIT"> F  </i>
    <v name="SAXIS">      0.00000000      0.00000000      1.00000000</v>
    <i type="logical" name="LSPIRAL"> F  </i>
    <v name="QSPIRAL">      0.00000000      0.00000000      0.00000000</v>
    <i type="logical" name="LZEROZ"> F  </i>
   </separator>
   <separator name="electronic exchange-correlation" >
    <i type="logical" name="LASPH"> F  </i>
    <i type="logical" name="LMETAGGA"> F  </i>
   </separator>
   <separator name="electronic convergence" >
    <i type="int" name="NELM">    60</i>
    <i type="int" name="NELMDL">    -5</i>
    <i type="int" name="NELMIN">     2</i>
    <i name="ENINI">    400.00000000</i>
    <separator name="electronic convergence detail" >
     <i type="logical" name="LDIAG"> T  </i>
     <i type="logical" name="LSUBROT"> F  </i>
     <i name="WEIMIN">      0.00000000</i>
     <i name="EBREAK">      0.00000000</i>
     <i name="DEPER">      0.30000000</i>
     <i type="int" name="NRMM">     4</i>
     <i name="TIME">      0.40000000</i>
    </separator>
   </separator>
   <separator name="electronic mixer" >
    <i name="AMIX">      0.40000000</i>
    <i name="BMIX">      1.00000000</i>
    <i name="AMIN">      0.10000000</i>
    <i name="AMIX_MAG">      1.60000000</i>
    <i name="BMIX_MAG">      1.00000000</i>
    <separator name="electronic mixer details" >
     <i type="int" name="IMIX">     4</i>
     <i type="logical" name="MIXFIRST"> F  </i>
     <i type="int" name="MAXMIX">   -45</i>
     <i name="WC">    100.00000000</i>
     <i type="int" name="INIMIX">     1</i>
     <i type="int" name="MIXPRE">     1</i>
     <i type="int" name="MREMOVE">     5</i>
    </separator>
   </separator>
   <separator name="electronic dipolcorrection" >
    <i type="logical" name="LDIPOL"> F  </i>
    <i type="logical" name="LMONO"> F  </i>
    <i type="int" name="IDIPOL">     0</i>
    <i name="EPSILON">      1.00000000</i>
    <v name="DIPOL">   -100.00000000   -100.00000000   -100.00000000</v>
    <i name="EFIELD">      0.00000000</i>
   </separator>
  </separator>
  <separator name="grids" >
   <i type="int" name="NGX">   196</i>
   <i type="int" name="NGY">   196</i>
   <i type="int" name="NGZ">   196</i>
   <i type="int" name="NGXF">   392</i>
   <i type="int" name="NGYF">   392</i>
   <i type="int" name="NGZF">   392</i>
   <i type="logical" name="ADDGRID"> F  </i>
  </separator>
  <separator name="ionic" >
   <i type="int" name="NSW">     0</i>
   <i type="int" name="IBRION">    -1</i>
   <i type="int" name="MDALGO">     0</i>
   <i type="int" name="ISIF">     2</i>
   <i name="PSTRESS">      0.00000000</i>
   <i name="EDIFFG">     -0.04000000</i>
   <i type="int" name="NFREE">     0</i>
   <i name="POTIM">      0.50000000</i>
   <i name="SMASS">     -3.00000000</i>
   <i name="SCALEE">      1.00000000</i>
  </separator>
  <separator name="ionic md" >
   <i name="TEBEG">      0.00010000</i>
   <i name="TEEND">      0.00010000</i>
   <i type="int" name="NBLOCK">     1</i>
   <i type="int" name="KBLOCK">     1</i>
   <i type="int" name="NPACO">   256</i>
   <i name="APACO">     10.00000000</i>
  </separator>
  <separator name="symmetry" >
   <i type="int" name="ISYM">     2</i>
   <i name="SYMPREC">      0.00001000</i>
  </separator>
  <separator name="dos" >
   <i type="int" name="LORBIT">     0</i>
   <v name="RWIGS">     -1.00000000</v>
   <i type="int" name="NEDOS">   301</i>
   <i name="EMIN">     10.00000000</i>
   <i name="EMAX">    -10.00000000</i>
   <i name="EFERMI">      0.00000000</i>
  </separator>
  <separator name="writing" >
   <i type="int" name="NWRITE">     2</i>
   <i type="logical" name="LWAVE"> F  </i>
   <i type="logical" name="LDOWNSAMPLE"> F  </i>
   <i type="logical" name="LCHARG"> F  </i>
   <i type="logical" name="LPARD"> F  </i>
   <i type="logical" name="LVTOT"> F  </i>
   <i type="logical" name="LVHAR"> F  </i>
   <i type="logical" name="LELF"> F  </i>
   <i type="logical" name="LOPTICS"> F  </i>
   <v name="STM">      0.00000000      0.00000000      0.00000000      0.00000000      0.00000000      0.00000000      0.00000000</v>
  </separator>
  <separator name="performance" >
   <i type="int" name="NPAR">    96</i>
   <i type="int" name="NSIM">     4</i>
   <i type="int" name="NBLK">    -1</i>
   <i type="logical" name="LPLANE"> T  </i>
   <i type="logical" name="LSCALAPACK"> F  </i>
   <i type="logical" name="LSCAAWARE"> F  </i>
   <i type="logical" name="LSCALU"> F  </i>
   <i type="logical" name="LASYNC"> F  </i>
   <i type="logical" name="LORBITALREAL"> F  </i>
  </separator>
  <separator name="miscellaneous" >
   <i type="int" name="IDIOT">     3</i>
   <i type="int" name="PHON_NSTRUCT">    -1</i>
   <i type="logical" name="LMUSIC"> F  </i>
   <v name="POMASS">    107.86800000</v>
   <v name="DARWINR">      0.00000000</v>
   <v name="DARWINV">      1.00000000</v>
   <i type="logical" name="LCORR"> T  </i>
  </separator>
  <i type="logical" name="GGA_COMPAT"> T  </i>
  <i type="logical" name="LBERRY"> F  </i>
  <i type="int" name="ICORELEVEL">     0</i>
  <i type="logical" name="LDAU"> F  </i>
  <i type="int" name="I_CONSTRAINED_M">     0</i>
  <separator name="electronic exchange-correlation" >
   <i type="string" name="GGA">PE</i>
   <i type="int" name="VOSKOWN">     0</i>
   <i type="logical" name="LHFCALC"> F  </i>
   <i type="string" name="PRECFOCK"></i>
   <i type="logical" name="LSYMGRAD"> F  </i>
   <i type="logical" name="LHFONE"> F  </i>
   <i type="logical" name="LRHFCALC"> F  </i>
   <i type="logical" name="LTHOMAS"> F  </i>
   <i type="logical" name="LMODELHF"> F  </i>
   <i type="logical" name="LFOCKACE"> F  </i>
   <i name="ENCUT4O">     -1.00000000</i>
   <i type="int" name="EXXOEP">     0</i>
   <i type="int" name="FOURORBIT">     0</i>
   <i name="AEXX">      0.00000000</i>
   <i name="HFALPHA">      0.00000000</i>
   <i name="MCALPHA">      0.00000000</i>
   <i name="ALDAX">      1.00000000</i>
   <i name="AGGAX">      1.00000000</i>
   <i name="ALDAC">      1.00000000</i>
   <i name="AGGAC">      1.00000000</i>
   <i type="int" name="NKREDX">     1</i>
   <i type="int" name="NKREDY">     1</i>
   <i type="int" name="NKREDZ">     1</i>
   <i type="logical" name="SHIFTRED"> F  </i>
   <i type="logical" name="ODDONLY"> F  </i>
   <i type="logical" name="EVENONLY"> F  </i>
   <i type="int" name="LMAXFOCK">     0</i>
   <i type="int" name="NMAXFOCKAE">     0</i>
   <i type="logical" name="LFOCKAEDFT"> F  </i>
   <i name="HFSCREEN">      0.00000000</i>
   <i name="HFSCREENC">      0.00000000</i>
   <i type="int" name="NBANDSGWLOW">     0</i>
  </separator>
  <separator name="vdW DFT" >
   <i type="logical" name="LUSE_VDW"> F  </i>
   <i name="Zab_VDW">     -0.84910000</i>
   <i name="PARAM1">      0.12340000</i>
   <i name="PARAM2">      1.00000000</i>
   <i name="PARAM3">      0.00000000</i>
  </separator>
  <separator name="model GW" >
   <i type="int" name="MODEL_GW">     0</i>
   <i name="MODEL_EPS0">    628.75375200</i>
   <i name="MODEL_ALPHA">      1.00000000</i>
  </separator>
  <separator name="linear response parameters" >
   <i type="logical" name="LEPSILON"> F  </i>
   <i type="logical" name="LRPA"> F  </i>
   <i type="logical" name="LNABLA"> F  </i>
   <i type="logical" name="LVEL"> F  </i>
   <i name="CSHIFT">      0.10000000</i>
   <i name="OMEGAMAX">     -1.00000000</i>
   <i name="DEG_THRESHOLD">      0.00200000</i>
   <i name="RTIME">     -0.10000000</i>
   <i name="WPLASMAI">      0.00000000</i>
   <v name="DFIELD">      0.00000000      0.00000000      0.00000000</v>
   <v name="WPLASMA">      0.00000000      0.00000000      0.00000000      0.00000000      0.00000000      0.00000000      0.00000000      0.00000000      0.00000000</v>
  </separator>
  <separator name="orbital magnetization" >
   <i type="logical" name="NUCIND"> F  </i>
   <v name="MAGPOS">      0.00000000      0.00000000      0.00000000</v>
   <i type="logical" name="LNICSALL"> T  </i>
   <i type="logical" name="ORBITALMAG"> F  </i>
   <i type="logical" name="LMAGBLOCH"> F  </i>
   <i type="logical" name="LCHIMAG"> F  </i>
   <i type="logical" name="LGAUGE"> T  </i>
   <i type="int" name="MAGATOM">     0</i>
   <v name="MAGDIPOL">      0.00000000      0.00000000      0.00000000</v>
   <v name="AVECCONST">      0.00000000      0.00000000      0.00000000</v>
  </separator>
  <separator name="response functions" >
   <i type="logical" name="LFINITE_TEMPERATURE"> F  </i>
   <i type="logical" name="LADDER"> F  </i>
   <i type="logical" name="LRPAFORCE"> F  </i>
   <i type="logical" name="LFXC"> F  </i>
   <i type="logical" name="LHARTREE"> T  </i>
   <i type="int" name="IBSE">     0</i>
   <v type="int" name="KPOINT">    -1     0     0     0</v>
   <i type="logical" name="LTCTC"> F  </i>
   <i type="logical" name="LTCTE"> F  </i>
   <i type="logical" name="LTETE"> F  </i>
   <i type="logical" name="LTRIPLET"> F  </i>
   <i type="logical" name="LFXCEPS"> F  </i>
   <i type="logical" name="LFXHEG"> F  </i>
   <i type="int" name="NATURALO">     2</i>
   <i type="logical" name="LHOLEGF"> F  </i>
   <i type="logical" name="L2ORDER"> F  </i>
   <i type="logical" name="LDMP1"> F  </i>
   <i type="logical" name="LMP2LT"> F  </i>
   <i type="logical" name="LSMP2LT"> F  </i>
   <i type="logical" name="LGWLF"> F  </i>
   <i name="ENCUTGW">     -2.00000000</i>
   <i name="ENCUTGWSOFT">     -2.00000000</i>
   <i name="ENCUTLF">     -1.00000000</i>
   <i type="logical" name="LESF_SPLINES"> F  </i>
   <i type="int" name="LMAXMP2">    -1</i>
   <i name="SCISSOR">      0.00000000</i>
   <i type="int" name="NOMEGA">     0</i>
   <i type="int" name="NOMEGAR">     0</i>
   <i type="int" name="NBANDSGW">    -1</i>
   <i type="int" name="NBANDSO">    -1</i>
   <i type="int" name="NBANDSV">    -1</i>
   <i type="int" name="NELMGW">     1</i>
   <i type="int" name="NELMHF">     1</i>
   <i type="int" name="DIM">     3</i>
   <i type="int" name="IESPILON">     4</i>
   <i type="int" name="ANTIRES">     0</i>
   <i name="OMEGAMAX">    -30.00000000</i>
   <i name="OMEGAMIN">    -30.00000000</i>
   <i name="OMEGATL">   -200.00000000</i>
   <i type="int" name="OMEGAGRID">     0</i>
   <i name="CSHIFT">     -0.10000000</i>
   <i type="logical" name="LSELFENERGY"> F  </i>
   <i type="logical" name="LSPECTRAL"> F  </i>
   <i type="logical" name="LSPECTRALGW"> F  </i>
   <i type="logical" name="LSINGLES"> F  </i>
   <i type="logical" name="LFERMIGW"> F  </i>
   <i type="logical" name="ODDONLYGW"> F  </i>
   <i type="logical" name="EVENONLYGW"> F  </i>
   <i type="int" name="NKREDLFX">     1</i>
   <i type="int" name="NKREDLFY">     1</i>
   <i type="int" name="NKREDLFZ">     1</i>
   <i type="int" name="MAXMEM">  2800</i>
   <i type="int" name="TELESCOPE">     0</i>
   <i type="int" name="NTAUPAR">    -1</i>
   <i type="int" name="NOMEGAPAR">    -1</i>
   <i name="DAMP_NEWTON">      0.80000001</i>
   <i name="LAMBDA">      1.00000000</i>
  </separator>
  <separator name="External order field" >
   <i name="OFIELD_KAPPA">      0.00000000</i>
   <v name="OFIELD_K">      0.00000000      0.00000000      0.00000000</v>
   <i name="OFIELD_Q6_NEAR">      0.00000000</i>
   <i name="OFIELD_Q6_FAR">      0.00000000</i>
   <i name="OFIELD_A">      0.00000000</i>
  </separator>
  <separator name="optional k-points parameters" >
   <i type="int" name="KPOINTS_OPT_MODE">     1</i>
   <i type="logical" name="LKPOINTS_OPT"> F  </i>
  </separator>
  <separator name="solvation model" >
   <i type="logical" name="LSOL"> F  </i>
  </separator>
 </parameters>
 <atominfo>
  <atoms>      25 </atoms>
  <types>       1 </types>
  <array name="atoms" >
   <dimension dim="1">ion</dimension>
   <field type="string">element</field>
   <field type="int">atomtype</field>
   <set>
    <rc><c>Ag</c><c>   1</c></rc>
    <rc><c>Ag</c><c>   1</c></rc>
    <rc><c>Ag</c><c>   1</c></rc>
    <rc><c>Ag</c><c>   1</c></rc>
    <rc><c>Ag</c><c>   1</c></rc>
    <rc><c>Ag</c><c>   1</c></rc>
    <rc><c>Ag</c><c>   1</c></rc>
    <rc><c>Ag</c><c>   1</c></rc>
    <rc><c>Ag</c><c>   1</c></rc>
    <rc><c>Ag</c><c>   1</c></rc>
    <rc><c>Ag</c><c>   1</c></rc>
    <rc><c>Ag</c><c>   1</c></rc>
    <rc><c>Ag</c><c>   1</c></rc>
    <rc><c>Ag</c><c>   1</c></rc>
    <rc><c>Ag</c><c>   1</c></rc>
    <rc><c>Ag</c><c>   1</c></rc>
    <rc><c>Ag</c><c>   1</c></rc>
    <rc><c>Ag</c><c>   1</c></rc>
    <rc><c>Ag</c><c>   1</c></rc>
    <rc><c>Ag</c><c>   1</c></rc>
    <rc><c>Ag</c><c>   1</c></rc>
    <rc><c>Ag</c><c>   1</c></rc>
    <rc><c>Ag</c><c>   1</c></rc>
    <rc><c>Ag</c><c>   1</c></rc>
    <rc><c>Ag</c><c>   1</c></rc>
   </set>
  </array>
  <array name="atomtypes" >
   <dimension dim="1">type</dimension>
   <field type="int">atomspertype</field>
   <field type="string">element</field>
   <field>mass</field>
   <field>valence</field>
   <field type="string">pseudopotential</field>
   <set>
    <rc><c>  25</c><c>Ag</c><c>    107.86800000</c><c>     11.00000000</c><c>  PAW_PBE Ag 02Apr2005                  </c></rc>
   </set>
  </array>
 </atominfo>
 <structure name="initialpos" >
  <crystal>
   <varray name="basis" >
    <v>      29.70000000       0.00000000       0.00000000 </v>
    <v>       0.00000000      29.70000000       0.00000000 </v>
    <v>       0.00000000       0.00000000      29.70000000 </v>
   </varray>
   <i name="volume">  26198.07300000 </i>
   <varray name="rec_basis" >
    <v>       0.03367003       0.00000000       0.00000000 </v>
    <v>       0.00000000       0.03367003       0.00000000 </v>
    <v>       0.00000000       0.00000000       0.03367003 </v>
   </varray>
  </crystal>
  <varray name="positions" >
   <v>       0.46548822       0.50000000       0.50000000 </v>
   <v>       0.53451178       0.50000000       0.43097643 </v>
   <v>       0.53451178       0.43097643       0.50000000 </v>
   <v>       0.53451178       0.56902357       0.50000000 </v>
   <v>       0.53451178       0.50000000       0.56902357 </v>
   <v>       0.39646465       0.50000000       0.43097643 </v>
   <v>       0.46548822       0.56902357       0.43097643 </v>
   <v>       0.46548822       0.43097643       0.43097643 </v>
   <v>       0.39646465       0.43097643       0.50000000 </v>
   <v>       0.46548822       0.43097643       0.56902357 </v>
   <v>       0.46548822       0.50000000       0.36195286 </v>
   <v>       0.46548822       0.36195286       0.50000000 </v>
   <v>       0.60353535       0.50000000       0.50000000 </v>
   <v>       0.60353535       0.43097643       0.43097643 </v>
   <v>       0.53451178       0.43097643       0.36195286 </v>
   <v>       0.53451178       0.36195286       0.43097643 </v>
   <v>       0.39646465       0.56902357       0.50000000 </v>
   <v>       0.39646465       0.50000000       0.56902357 </v>
   <v>       0.46548822       0.56902357       0.56902357 </v>
   <v>       0.46548822       0.50000000       0.63804714 </v>
   <v>       0.60353535       0.56902357       0.43097643 </v>
   <v>       0.60353535       0.50000000       0.36195286 </v>
   <v>       0.53451178       0.56902357       0.36195286 </v>
   <v>       0.46548822       0.63804714       0.50000000 </v>
   <v>       0.53451178       0.63804714       0.43097643 </v>
  </varray>
 </structure>
 <calculation>
  <scstep>
   <time name="dav">    2.10    2.13</time>
   <time name="total">    2.59    2.63</time>
   <energy>
    <i name="alphaZ">     20.29199984 </i>
    <i name="ewald">  67714.13558197 </i>
    <i name="hartreedc"> -92448.62707352 </i>
    <i name="XCdc">   -279.06773996 </i>
    <i name="pawpsdc">  25086.55373316 </i>
    <i name="pawaedc"> -23933.73185576 </i>
    <i name="eentropy">     -1.60103899 </i>
    <i name="bandstr">    361.22099449 </i>
    <i name="atom">  25931.46070940 </i>
    <i name="e_fr_energy">   2450.63531063 </i>
    <i name="e_wo_entrp">   2452.23634962 </i>
    <i name="e_0_energy">   2451.43583013 </i>
   </energy>
  </scstep>
  <scstep>
   <time name="dav">    3.78    3.85</time>
   <time name="total">    3.79    3.86</time>
   <energy>
    <i name="e_fr_energy">    842.73289293 </i>
    <i name="e_wo_entrp">    843.70074133 </i>
    <i name="e_0_energy">    843.21681713 </i>
   </energy>
  </scstep>
  <scstep>
   <time name="dav">    2.95    3.01</time>
   <time name="total">    2.96    3.02</time>
   <energy>
    <i name="e_fr_energy">    -18.50619967 </i>
    <i name="e_wo_entrp">    -18.27957177 </i>
    <i name="e_0_energy">    -18.39288572 </i>
   </energy>
  </scstep>
  <scstep>
   <time name="dav">    2.11    2.16</time>
   <time name="total">    2.12    2.17</time>
   <energy>
    <i name="e_fr_energy">    -53.95065748 </i>
    <i name="e_wo_entrp">    -53.73612875 </i>
    <i name="e_0_energy">    -53.84339311 </i>
   </energy>
  </scstep>
  <scstep>
   <time name="dav">    2.93    2.99</time>
   <time name="total">    4.04    4.12</time>
   <energy>
    <i name="e_fr_energy">    -54.29173287 </i>
    <i name="e_wo_entrp">    -54.07718000 </i>
    <i name="e_0_energy">    -54.18445643 </i>
   </energy>
  </scstep>
  <scstep>
   <time name="dav">    2.94    2.98</time>
   <time name="total">    4.42    4.49</time>
   <energy>
    <i name="e_fr_energy">    -50.61299221 </i>
    <i name="e_wo_entrp">    -50.39128184 </i>
    <i name="e_0_energy">    -50.50213702 </i>
   </energy>
  </scstep>
  <scstep>
   <time name="dav">    2.92    2.97</time>
   <time name="total">    4.41    4.49</time>
   <energy>
    <i name="e_fr_energy">    -50.36074506 </i>
    <i name="e_wo_entrp">    -50.13304580 </i>
    <i name="e_0_energy">    -50.24689543 </i>
   </energy>
  </scstep>
  <scstep>
   <time name="dav">    3.34    3.37</time>
   <time name="total">    4.81    4.89</time>
   <energy>
    <i name="e_fr_energy">    -50.32073859 </i>
    <i name="e_wo_entrp">    -50.09042169 </i>
    <i name="e_0_energy">    -50.20558014 </i>
   </energy>
  </scstep>
  <scstep>
   <time name="dav">    3.33    3.36</time>
   <time name="total">    4.81    4.89</time>
   <energy>
    <i name="e_fr_energy">    -50.31837062 </i>
    <i name="e_wo_entrp">    -50.08845419 </i>
    <i name="e_0_energy">    -50.20341240 </i>
   </energy>
  </scstep>
  <scstep>
   <time name="dav">    3.32    3.36</time>
   <time name="total">    4.81    4.88</time>
   <energy>
    <i name="e_fr_energy">    -50.31822304 </i>
    <i name="e_wo_entrp">    -50.08818673 </i>
    <i name="e_0_energy">    -50.20320488 </i>
   </energy>
  </scstep>
  <scstep>
   <time name="dav">    2.50    2.53</time>
   <time name="total">    4.06    4.13</time>
   <energy>
    <i name="e_fr_energy">    -50.31892896 </i>
    <i name="e_wo_entrp">    -50.08856353 </i>
    <i name="e_0_energy">    -50.20374624 </i>
   </energy>
  </scstep>
  <scstep>
   <time name="dav">    2.91    2.96</time>
   <time name="total">    4.38    4.46</time>
   <energy>
    <i name="e_fr_energy">    -50.32038036 </i>
    <i name="e_wo_entrp">    -50.08982893 </i>
    <i name="e_0_energy">    -50.20510464 </i>
   </energy>
  </scstep>
  <scstep>
   <time name="dav">    2.08    2.11</time>
   <time name="total">    3.58    3.64</time>
   <energy>
    <i name="e_fr_energy">    -50.32276609 </i>
    <i name="e_wo_entrp">    -50.09210923 </i>
    <i name="e_0_energy">    -50.20743766 </i>
   </energy>
  </scstep>
  <scstep>
   <time name="dav">    2.95    2.98</time>
   <time name="total">    4.44    4.50</time>
   <energy>
    <i name="e_fr_energy">    -50.32475363 </i>
    <i name="e_wo_entrp">    -50.09406602 </i>
    <i name="e_0_energy">    -50.20940982 </i>
   </energy>
  </scstep>
  <scstep>
   <time name="dav">    2.09    2.11</time>
   <time name="total">    3.56    3.62</time>
   <energy>
    <i name="e_fr_energy">    -50.32590575 </i>
    <i name="e_wo_entrp">    -50.09521515 </i>
    <i name="e_0_energy">    -50.21056045 </i>
   </energy>
  </scstep>
  <scstep>
   <time name="dav">    2.92    2.95</time>
   <time name="total">    4.40    4.48</time>
   <energy>
    <i name="e_fr_energy">    -50.32673077 </i>
    <i name="e_wo_entrp">    -50.09604324 </i>
    <i name="e_0_energy">    -50.21138700 </i>
   </energy>
  </scstep>
  <scstep>
   <time name="dav">    2.54    2.58</time>
   <time name="total">    4.03    4.10</time>
   <energy>
    <i name="e_fr_energy">    -50.32730860 </i>
    <i name="e_wo_entrp">    -50.09661483 </i>
    <i name="e_0_energy">    -50.21196172 </i>
   </energy>
  </scstep>
  <scstep>
   <time name="dav">    2.59    2.62</time>
   <time name="total">    4.08    4.15</time>
   <energy>
    <i name="e_fr_energy">    -50.32756468 </i>
    <i name="e_wo_entrp">    -50.09686622 </i>
    <i name="e_0_energy">    -50.21221545 </i>
   </energy>
  </scstep>
  <scstep>
   <time name="dav">    2.10    2.13</time>
   <time name="total">    3.57    3.62</time>
   <energy>
    <i name="e_fr_energy">    -50.32770649 </i>
    <i name="e_wo_entrp">    -50.09700231 </i>
    <i name="e_0_energy">    -50.21235440 </i>
   </energy>
  </scstep>
  <scstep>
   <time name="dav">    2.54    2.57</time>
   <time name="total">    4.03    4.12</time>
   <energy>
    <i name="e_fr_energy">    -50.32778616 </i>
    <i name="e_wo_entrp">    -50.09707864 </i>
    <i name="e_0_energy">    -50.21243240 </i>
   </energy>
  </scstep>
  <scstep>
   <time name="dav">    1.71    1.73</time>
   <time name="total">    3.20    3.29</time>
   <energy>
    <i name="e_fr_energy">    -50.32782837 </i>
    <i name="e_wo_entrp">    -50.09711954 </i>
    <i name="e_0_energy">    -50.21247395 </i>
   </energy>
  </scstep>
  <scstep>
   <time name="dav">    2.56    2.59</time>
   <time name="total">    4.06    4.12</time>
   <energy>
    <i name="e_fr_energy">    -50.32784447 </i>
    <i name="e_wo_entrp">    -50.09713454 </i>
    <i name="e_0_energy">    -50.21248951 </i>
   </energy>
  </scstep>
  <scstep>
   <time name="dav">    2.11    2.15</time>
   <time name="total">    3.59    3.66</time>
   <energy>
    <i name="e_fr_energy">    -50.32785114 </i>
    <i name="e_wo_entrp">    -50.09714109 </i>
    <i name="e_0_energy">    -50.21249612 </i>
   </energy>
  </scstep>
  <scstep>
   <time name="dav">    2.56    2.59</time>
   <time name="total">    4.03    4.10</time>
   <energy>
    <i name="e_fr_energy">    -50.32785439 </i>
    <i name="e_wo_entrp">    -50.09714446 </i>
    <i name="e_0_energy">    -50.21249943 </i>
   </energy>
  </scstep>
  <scstep>
   <time name="dav">    2.53    2.57</time>
   <time name="total">    4.01    4.08</time>
   <energy>
    <i name="e_fr_energy">    -50.32785575 </i>
    <i name="e_wo_entrp">    -50.09714577 </i>
    <i name="e_0_energy">    -50.21250076 </i>
   </energy>
  </scstep>
  <scstep>
   <time name="dav">    2.54    2.58</time>
   <time name="total">    3.04    3.10</time>
   <energy>
    <i name="alphaZ">     20.29199984 </i>
    <i name="ewald">  67714.13558197 </i>
    <i name="hartreedc"> -92426.84866397 </i>
    <i name="XCdc">   -286.02170804 </i>
    <i name="pawpsdc">  26731.97476125 </i>
    <i name="pawaedc"> -25618.27695817 </i>
    <i name="eentropy">     -0.23071001 </i>
    <i name="bandstr">  -2116.81286846 </i>
    <i name="atom">  25931.46070940 </i>
    <i name="e_fr_energy">    -50.32785619 </i>
    <i name="e_wo_entrp">    -50.09714618 </i>
    <i name="e_0_energy">    -50.21250119 </i>
   </energy>
  </scstep>
  <structure>
   <crystal>
    <varray name="basis" >
     <v>      29.70000000       0.00000000       0.00000000 </v>
     <v>       0.00000000      29.70000000       0.00000000 </v>
     <v>       0.00000000       0.00000000      29.70000000 </v>
    </varray>
    <i name="volume">  26198.07300000 </i>
    <varray name="rec_basis" >
     <v>       0.03367003       0.00000000       0.00000000 </v>
     <v>       0.00000000       0.03367003       0.00000000 </v>
     <v>       0.00000000       0.00000000       0.03367003 </v>
    </varray>
   </crystal>
   <varray name="positions" >
    <v>       0.46548822       0.50000000       0.50000000 </v>
    <v>       0.53451178       0.50000000       0.43097643 </v>
    <v>       0.53451178       0.43097643       0.50000000 </v>
    <v>       0.53451178       0.56902357       0.50000000 </v>
    <v>       0.53451178       0.50000000       0.56902357 </v>
    <v>       0.39646465       0.50000000       0.43097643 </v>
    <v>       0.46548822       0.56902357       0.43097643 </v>
    <v>       0.46548822       0.43097643       0.43097643 </v>
    <v>       0.39646465       0.43097643       0.50000000 </v>
    <v>       0.46548822       0.43097643       0.56902357 </v>
    <v>       0.46548822       0.50000000       0.36195286 </v>
    <v>       0.46548822       0.36195286       0.50000000 </v>
    <v>       0.60353535       0.50000000       0.50000000 </v>
    <v>       0.60353535       0.43097643       0.43097643 </v>
    <v>       0.53451178       0.43097643       0.36195286 </v>
    <v>       0.53451178       0.36195286       0.43097643 </v>
    <v>       0.39646465       0.56902357       0.50000000 </v>
    <v>       0.39646465       0.50000000       0.56902357 </v>
    <v>       0.46548822       0.56902357       0.56902357 </v>
    <v>       0.46548822       0.50000000       0.63804714 </v>
    <v>       0.60353535       0.56902357       0.43097643 </v>
    <v>       0.60353535       0.50000000       0.36195286 </v>
    <v>       0.53451178       0.56902357       0.36195286 </v>
    <v>       0.46548822       0.63804714       0.50000000 </v>
    <v>       0.53451178       0.63804714       0.43097643 </v>
   </varray>
  </structure>
  <varray name="forces" >
   <v>      -0.22572648       0.00000000       0.05816391 </v>
   <v>       0.28028920       0.00000000      -0.26104090 </v>
   <v>       0.05530016      -0.20451683       0.01811598 </v>
   <v>       0.05530016       0.20451683       0.01811598 </v>
   <v>      -0.08135022       0.00000000      -0.05943049 </v>
   <v>       0.21813887       0.00000000      -0.04010723 </v>
   <v>      -0.09431427       0.19430204      -0.05714707 </v>
   <v>      -0.09431427      -0.19430204      -0.05714707 </v>
   <v>       0.30016613       0.12221182       0.01662593 </v>
   <v>      -0.05724458       0.10519918      -0.08707331 </v>
   <v>       0.05287165       0.00000000       0.30429001 </v>
   <v>       0.26431737       0.38721788      -0.20767774 </v>
   <v>      -0.23572534       0.00000000      -0.03297125 </v>
   <v>      -0.28965425       0.12881261      -0.04056738 </v>
   <v>       0.08143471       0.21823451       0.28002920 </v>
   <v>      -0.25660521       0.38751497       0.29777819 </v>
   <v>       0.30016613      -0.12221182       0.01662593 </v>
   <v>       0.30793659       0.00000000      -0.08800416 </v>
   <v>      -0.05724458      -0.10519918      -0.08707331 </v>
   <v>       0.01756218       0.00000000      -0.53985685 </v>
   <v>      -0.28965425      -0.12881261      -0.04056738 </v>
   <v>      -0.34079657       0.00000000       0.21878938 </v>
   <v>       0.08143471      -0.21823451       0.28002920 </v>
   <v>       0.26431737      -0.38721788      -0.20767774 </v>
   <v>      -0.25660521      -0.38751497       0.29777819 </v>
  </varray>
  <varray name="stress" >
   <v>      -0.51159197       0.00000000       0.14750249 </v>
   <v>       0.00000000      -0.51141027       0.00000000 </v>
   <v>       0.14750250       0.00000000      -0.53851020 </v>
  </varray>
  <energy>
   <i name="e_fr_energy">    -50.32785619 </i>
   <i name="e_wo_entrp">    -50.09714618 </i>
   <i name="e_0_energy">    -50.21250119 </i>
  </energy>
  <time name="totalsc">  105.19  107.12</time>
  <eigenvalues>
   <array>
    <dimension dim="1">band</dimension>
    <dimension dim="2">kpoint</dimension>
    <dimension dim="3">spin</dimension>
    <field>eigene</field>
    <field>occ</field>
    <set>
     <set comment="spin 1">
      <set comment="kpoint 1">
       <r>   -9.9247    1.0000 </r>
       <r>   -9.4653    1.0000 </r>
       <r>   -9.4416    1.0000 </r>
       <r>   -9.4096    1.0000 </r>
       <r>   -9.3969    1.0000 </r>
       <r>   -9.3677    1.0000 </r>
       <r>   -9.3536    1.0000 </r>
       <r>   -9.3368    1.0000 </r>
       <r>   -9.2997    1.0000 </r>
       <r>   -9.1756    1.0000 </r>
       <r>   -9.1348    1.0000 </r>
       <r>   -9.0516    1.0000 </r>
       <r>   -9.0319    1.0000 </r>
       <r>   -9.0154    1.0000 </r>
       <r>   -8.9923    1.0000 </r>
       <r>   -8.8813    1.0000 </r>
       <r>   -8.8668    1.0000 </r>
       <r>   -8.8241    1.0000 </r>
       <r>   -8.7818    1.0000 </r>
       <r>   -8.7610    1.0000 </r>
       <r>   -8.7272    1.0000 </r>
       <r>   -8.6988    1.0000 </r>
       <r>   -8.6871    1.0000 </r>
       <r>   -8.6834    1.0000 </r>
       <r>   -8.6713    1.0000 </r>
       <r>   -8.6119    1.0000 </r>
       <r>   -8.6102    1.0000 </r>
       <r>   -8.5832    1.0000 </r>
       <r>   -8.5404    1.0000 </r>
       <r>   -8.5323    1.0000 </r>
       <r>   -8.5212    1.0000 </r>
       <r>   -8.4717    1.0000 </r>
       <r>   -8.4345    1.0000 </r>
       <r>   -8.4314    1.0000 </r>
       <r>   -8.3724    1.0000 </r>
       <r>   -8.3455    1.0000 </r>
       <r>   -8.3406    1.0000 </r>
       <r>   -8.3230    1.0000 </r>
       <r>   -8.3025    1.0000 </r>
       <r>   -8.2870    1.0000 </r>
       <r>   -8.2705    1.0000 </r>
       <r>   -8.2510    1.0000 </r>
       <r>   -8.2441    1.0000 </r>
       <r>   -8.2391    1.0000 </r>
       <r>   -8.1878    1.0000 </r>
       <r>   -8.1605    1.0000 </r>
       <r>   -8.1437    1.0000 </r>
       <r>   -8.1184    1.0000 </r>
       <r>   -8.0924    1.0000 </r>
       <r>   -8.0880    1.0000 </r>
       <r>   -8.0851    1.0000 </r>
       <r>   -8.0834    1.0000 </r>
       <r>   -8.0663    1.0000 </r>
       <r>   -8.0661    1.0000 </r>
       <r>   -8.0273    1.0000 </r>
       <r>   -8.0175    1.0000 </r>
       <r>   -8.0160    1.0000 </r>
       <r>   -7.9999    1.0000 </r>
       <r>   -7.9821    1.0000 </r>
       <r>   -7.9613    1.0000 </r>
       <r>   -7.9529    1.0000 </r>
       <r>   -7.9469    1.0000 </r>
       <r>   -7.9442    1.0000 </r>
       <r>   -7.9128    1.0000 </r>
       <r>   -7.8959    1.0000 </r>
       <r>   -7.8874    1.0000 </r>
       <r>   -7.8431    1.0000 </r>
       <r>   -7.8143    1.0000 </r>
       <r>   -7.8013    1.0000 </r>
       <r>   -7.7466    1.0000 </r>
       <r>   -7.7395    1.0000 </r>
       <r>   -7.6742    1.0000 </r>
       <r>   -7.6343    1.0000 </r>
       <r>   -7.5868    1.0000 </r>
       <r>   -7.5680    1.0000 </r>
       <r>   -7.4969    1.0000 </r>
       <r>   -7.4955    1.0000 </r>
       <r>   -7.4900    1.0000 </r>
       <r>   -7.4337    1.0000 </r>
       <r>   -7.4320    1.0000 </r>
       <r>   -7.4123    1.0000 </r>
       <r>   -7.4054    1.0000 </r>
       <r>   -7.3790    1.0000 </r>
       <r>   -7.3789    1.0000 </r>
       <r>   -7.3531    1.0000 </r>
       <r>   -7.3396    1.0000 </r>
       <r>   -7.3263    1.0000 </r>
       <r>   -7.3171    1.0000 </r>
       <r>   -7.2979    1.0000 </r>
       <r>   -7.2931    1.0000 </r>
       <r>   -7.2477    1.0000 </r>
       <r>   -7.2196    1.0000 </r>
       <r>   -7.2075    1.0000 </r>
       <r>   -7.2009    1.0000 </r>
       <r>   -7.1923    1.0000 </r>
       <r>   -7.1845    1.0000 </r>
       <r>   -7.1609    1.0000 </r>
       <r>   -7.1521    1.0000 </r>
       <r>   -7.1388    1.0000 </r>
       <r>   -7.1041    1.0000 </r>
       <r>   -7.0994    1.0000 </r>
       <r>   -7.0976    1.0000 </r>
       <r>   -7.0936    1.0000 </r>
       <r>   -7.0819    1.0000 </r>
       <r>   -7.0665    1.0000 </r>
       <r>   -7.0471    1.0000 </r>
       <r>   -7.0423    1.0000 </r>
       <r>   -7.0279    1.0000 </r>
       <r>   -7.0188    1.0000 </r>
       <r>   -7.0127    1.0000 </r>
       <r>   -7.0032    1.0000 </r>
       <r>   -6.9842    1.0000 </r>
       <r>   -6.9780    1.0000 </r>
       <r>   -6.9724    1.0000 </r>
       <r>   -6.9717    1.0000 </r>
       <r>   -6.9573    1.0000 </r>
       <r>   -6.9543    1.0000 </r>
       <r>   -6.9227    1.0000 </r>
       <r>   -6.9183    1.0000 </r>
       <r>   -6.9002    1.0000 </r>
       <r>   -6.8884    1.0000 </r>
       <r>   -6.8696    1.0000 </r>
       <r>   -6.8487    1.0000 </r>
       <r>   -6.8319    1.0000 </r>
       <r>   -6.8016    1.0000 </r>
       <r>   -6.7927    1.0000 </r>
       <r>   -6.7412    1.0000 </r>
       <r>   -6.7110    1.0000 </r>
       <r>   -6.5337    1.0000 </r>
       <r>   -5.9251    1.0000 </r>
       <r>   -5.8344    1.0000 </r>
       <r>   -5.5967    1.0000 </r>
       <r>   -5.4066    1.0000 </r>
       <r>   -4.5488    1.0000 </r>
       <r>   -4.3891    0.9999 </r>
       <r>   -4.1697    0.9882 </r>
       <r>   -4.1141    0.9694 </r>
       <r>   -3.7684    0.2834 </r>
       <r>   -3.7432    0.2262 </r>
       <r>   -3.5854    0.0309 </r>
       <r>   -3.4423    0.0020 </r>
       <r>   -2.9672    0.0000 </r>
       <r>   -2.6935    0.0000 </r>
       <r>   -2.5415    0.0000 </r>
       <r>   -2.4381    0.0000 </r>
       <r>   -2.3052    0.0000 </r>
       <r>   -2.1765    0.0000 </r>
       <r>   -2.1396    0.0000 </r>
       <r>   -2.0441    0.0000 </r>
       <r>   -1.9626    0.0000 </r>
       <r>   -1.7448    0.0000 </r>
       <r>   -1.5868    0.0000 </r>
       <r>   -1.5638    0.0000 </r>
       <r>   -1.2726    0.0000 </r>
       <r>   -1.0176    0.0000 </r>
       <r>   -0.9196    0.0000 </r>
       <r>   -0.8781    0.0000 </r>
       <r>   -0.7637    0.0000 </r>
       <r>   -0.7593    0.0000 </r>
       <r>   -0.5950    0.0000 </r>
       <r>   -0.4176    0.0000 </r>
       <r>   -0.3470    0.0000 </r>
       <r>   -0.2309    0.0000 </r>
       <r>   -0.0449    0.0000 </r>
       <r>    0.0896    0.0000 </r>
       <r>    0.1300    0.0000 </r>
       <r>    0.2105    0.0000 </r>
       <r>    0.2415    0.0000 </r>
       <r>    0.2868    0.0000 </r>
       <r>    0.3103    0.0000 </r>
       <r>    0.3259    0.0000 </r>
       <r>    0.3457    0.0000 </r>
       <r>    0.3719    0.0000 </r>
       <r>    0.4153    0.0000 </r>
       <r>    0.4358    0.0000 </r>
       <r>    0.4443    0.0000 </r>
       <r>    0.4470    0.0000 </r>
       <r>    0.4549    0.0000 </r>
       <r>    0.4652    0.0000 </r>
       <r>    0.4917    0.0000 </r>
       <r>    0.5024    0.0000 </r>
       <r>    0.5084    0.0000 </r>
       <r>    0.5154    0.0000 </r>
       <r>    0.5257    0.0000 </r>
       <r>    0.5516    0.0000 </r>
       <r>    0.5543    0.0000 </r>
       <r>    0.5825    0.0000 </r>
       <r>    0.6151    0.0000 </r>
       <r>    0.6314    0.0000 </r>
       <r>    0.6542    0.0000 </r>
       <r>    0.6550    0.0000 </r>
       <r>    0.6624    0.0000 </r>
      </set>
     </set>
    </set>
   </array>
  </eigenvalues>
  <separator name="orbital magnetization" >
   <v name="MAGDIPOLOUT">      0.00000000      0.00000000      0.00000000</v>
  </separator>
  <dos>
   <i name="efermi">     -3.84945163 </i>
   <total>
    <array>
     <dimension dim="1">gridpoints</dimension>
     <dimension dim="2">spin</dimension>
     <field>energy</field>
     <field>total</field>
     <field>integrated</field>
     <set>
      <set comment="spin 1">
       <r>   -11.9247     0.0000     0.0000 </r>
       <r>   -11.8760     0.0000     0.0000 </r>
       <r>   -11.8274     0.0000     0.0000 </r>
       <r>   -11.7788     0.0000     0.0000 </r>
       <r>   -11.7302     0.0000     0.0000 </r>
       <r>   -11.6815     0.0000     0.0000 </r>
       <r>   -11.6329     0.0000     0.0000 </r>
       <r>   -11.5843     0.0000     0.0000 </r>
       <r>   -11.5357     0.0000     0.0000 </r>
       <r>   -11.4871     0.0000     0.0000 </r>
       <r>   -11.4384     0.0000     0.0000 </r>
       <r>   -11.3898     0.0000     0.0000 </r>
       <r>   -11.3412     0.0000     0.0000 </r>
       <r>   -11.2926     0.0000     0.0000 </r>
       <r>   -11.2439     0.0000     0.0000 </r>
       <r>   -11.1953     0.0000     0.0000 </r>
       <r>   -11.1467     0.0000     0.0000 </r>
       <r>   -11.0981     0.0000     0.0000 </r>
       <r>   -11.0494     0.0000     0.0000 </r>
       <r>   -11.0008     0.0000     0.0000 </r>
       <r>   -10.9522     0.0000     0.0000 </r>
       <r>   -10.9036     0.0000     0.0000 </r>
       <r>   -10.8549     0.0000     0.0000 </r>
       <r>   -10.8063     0.0000     0.0000 </r>
       <r>   -10.7577     0.0000     0.0000 </r>
       <r>   -10.7091     0.0000     0.0000 </r>
       <r>   -10.6605     0.0000     0.0000 </r>
       <r>   -10.6118     0.0000     0.0000 </r>
       <r>   -10.5632     0.0001     0.0000 </r>
       <r>   -10.5146     0.0005     0.0000 </r>
       <r>   -10.4660     0.0020     0.0001 </r>
       <r>   -10.4173     0.0075     0.0005 </r>
       <r>   -10.3687     0.0246     0.0017 </r>
       <r>   -10.3201     0.0716     0.0052 </r>
       <r>   -10.2715     0.1856     0.0142 </r>
       <r>   -10.2228     0.4277     0.0350 </r>
       <r>   -10.1742     0.8769     0.0776 </r>
       <r>   -10.1256     1.5991     0.1554 </r>
       <r>   -10.0770     2.5942     0.2815 </r>
       <r>   -10.0283     3.7446     0.4636 </r>
       <r>    -9.9797     4.8121     0.6976 </r>
       <r>    -9.9311     5.5156     0.9658 </r>
       <r>    -9.8825     5.6724     1.2416 </r>
       <r>    -9.8339     5.3332     1.5009 </r>
       <r>    -9.7852     4.8384     1.7362 </r>
       <r>    -9.7366     4.7724     1.9682 </r>
       <r>    -9.6880     5.8433     2.2523 </r>
       <r>    -9.6394     8.7103     2.6759 </r>
       <r>    -9.5907    13.7603     3.3449 </r>
       <r>    -9.5421    20.8526     4.3589 </r>
       <r>    -9.4935    29.1492     5.7762 </r>
       <r>    -9.4449    37.2090     7.5854 </r>
       <r>    -9.3962    43.4399     9.6976 </r>
       <r>    -9.3476    46.7621    11.9714 </r>
       <r>    -9.2990    47.1124    14.2622 </r>
       <r>    -9.2504    45.4550    16.4723 </r>
       <r>    -9.2017    43.2639    18.5760 </r>
       <r>    -9.1531    41.8026    20.6086 </r>
       <r>    -9.1045    41.6527    22.6339 </r>
       <r>    -9.0559    42.7330    24.7117 </r>
       <r>    -9.0073    44.6950    26.8849 </r>
       <r>    -8.9586    47.3428    29.1869 </r>
       <r>    -8.9100    50.7707    31.6556 </r>
       <r>    -8.8614    55.1636    34.3378 </r>
       <r>    -8.8128    60.4656    37.2779 </r>
       <r>    -8.7641    66.1947    40.4965 </r>
       <r>    -8.7155    71.5544    43.9757 </r>
       <r>    -8.6669    75.7758    47.6602 </r>
       <r>    -8.6183    78.4867    51.4765 </r>
       <r>    -8.5696    79.9026    55.3617 </r>
       <r>    -8.5210    80.7457    59.2878 </r>
       <r>    -8.4724    81.9365    63.2719 </r>
       <r>    -8.4238    84.2126    67.3666 </r>
       <r>    -8.3751    87.8699    71.6391 </r>
       <r>    -8.3265    92.7604    76.1495 </r>
       <r>    -8.2779    98.5118    80.9394 </r>
       <r>    -8.2293   104.7578    86.0331 </r>
       <r>    -8.1806   111.1535    91.4378 </r>
       <r>    -8.1320   117.1550    97.1343 </r>
       <r>    -8.0834   121.8123   103.0573 </r>
       <r>    -8.0348   123.8695   109.0802 </r>
       <r>    -7.9862   122.2231   115.0232 </r>
       <r>    -7.9375   116.4785   120.6868 </r>
       <r>    -7.8889   107.2451   125.9014 </r>
       <r>    -7.8403    96.0031   130.5694 </r>
       <r>    -7.7917    84.6521   134.6855 </r>
       <r>    -7.7430    75.0090   138.3327 </r>
       <r>    -7.6944    68.4627   141.6616 </r>
       <r>    -7.6458    65.8293   144.8625 </r>
       <r>    -7.5972    67.3261   148.1361 </r>
       <r>    -7.5485    72.5838   151.6654 </r>
       <r>    -7.4999    80.7009   155.5893 </r>
       <r>    -7.4513    90.4200   159.9859 </r>
       <r>    -7.4027   100.4671   164.8710 </r>
       <r>    -7.3540   109.9604   170.2176 </r>
       <r>    -7.3054   118.6652   175.9875 </r>
       <r>    -7.2568   126.8947   182.1576 </r>
       <r>    -7.2082   135.0578   188.7246 </r>
       <r>    -7.1596   143.0976   195.6825 </r>
       <r>    -7.1109   150.1605   202.9839 </r>
       <r>    -7.0623   154.7042   210.5061 </r>
       <r>    -7.0137   155.0081   218.0432 </r>
       <r>    -6.9651   149.8366   225.3288 </r>
       <r>    -6.9164   138.9414   232.0846 </r>
       <r>    -6.8678   123.1882   238.0744 </r>
       <r>    -6.8192   104.2925   243.1455 </r>
       <r>    -6.7706    84.3292   247.2459 </r>
       <r>    -6.7219    65.2400   250.4181 </r>
       <r>    -6.6733    48.4800   252.7754 </r>
       <r>    -6.6247    34.8441   254.4696 </r>
       <r>    -6.5761    24.4605   255.6590 </r>
       <r>    -6.5274    16.9367   256.4825 </r>
       <r>    -6.4788    11.6142   257.0472 </r>
       <r>    -6.4302     7.8374   257.4283 </r>
       <r>    -6.3816     5.1276   257.6776 </r>
       <r>    -6.3330     3.2149   257.8340 </r>
       <r>    -6.2843     1.9761   257.9300 </r>
       <r>    -6.2357     1.3605   257.9962 </r>
       <r>    -6.1871     1.3551   258.0621 </r>
       <r>    -6.1385     1.9706   258.1579 </r>
       <r>    -6.0898     3.2089   258.3139 </r>
       <r>    -6.0412     4.9934   258.5567 </r>
       <r>    -5.9926     7.0998   258.9019 </r>
       <r>    -5.9440     9.1536   259.3470 </r>
       <r>    -5.8953    10.7342   259.8690 </r>
       <r>    -5.8467    11.5515   260.4306 </r>
       <r>    -5.7981    11.5861   260.9940 </r>
       <r>    -5.7495    11.0923   261.5333 </r>
       <r>    -5.7008    10.4501   262.0415 </r>
       <r>    -5.6522     9.9631   262.5259 </r>
       <r>    -5.6036     9.7330   262.9992 </r>
       <r>    -5.5550     9.6655   263.4691 </r>
       <r>    -5.5064     9.5647   263.9342 </r>
       <r>    -5.4577     9.2328   264.3831 </r>
       <r>    -5.4091     8.5349   264.7981 </r>
       <r>    -5.3605     7.4372   265.1598 </r>
       <r>    -5.3119     6.0249   265.4527 </r>
       <r>    -5.2632     4.4841   265.6707 </r>
       <r>    -5.2146     3.0370   265.8184 </r>
       <r>    -5.1660     1.8584   265.9088 </r>
       <r>    -5.1174     1.0227   265.9585 </r>
       <r>    -5.0687     0.5069   265.9831 </r>
       <r>    -5.0201     0.2344   265.9945 </r>
       <r>    -4.9715     0.1274   266.0007 </r>
       <r>    -4.9229     0.1433   266.0077 </r>
       <r>    -4.8742     0.2903   266.0218 </r>
       <r>    -4.8256     0.6268   266.0523 </r>
       <r>    -4.7770     1.2429   266.1127 </r>
       <r>    -4.7284     2.2207   266.2207 </r>
       <r>    -4.6798     3.5787   266.3947 </r>
       <r>    -4.6311     5.2267   266.6489 </r>
       <r>    -4.5825     6.9651   266.9875 </r>
       <r>    -4.5339     8.5444   267.4030 </r>
       <r>    -4.4853     9.7625   267.8777 </r>
       <r>    -4.4366    10.5519   268.3907 </r>
       <r>    -4.3880    11.0094   268.9261 </r>
       <r>    -4.3394    11.3441   269.4776 </r>
       <r>    -4.2908    11.7539   270.0492 </r>
       <r>    -4.2421    12.2829   270.6464 </r>
       <r>    -4.1935    12.7527   271.2665 </r>
       <r>    -4.1449    12.8466   271.8911 </r>
       <r>    -4.0963    12.3295   272.4906 </r>
       <r>    -4.0476    11.2657   273.0384 </r>
       <r>    -3.9990    10.0691   273.5280 </r>
       <r>    -3.9504     9.3248   273.9814 </r>
       <r>    -3.9018     9.4799   274.4424 </r>
       <r>    -3.8532    10.5957   274.9576 </r>
       <r>    -3.8045    12.3113   275.5562 </r>
       <r>    -3.7559    14.0351   276.2386 </r>
       <r>    -3.7073    15.2379   276.9795 </r>
       <r>    -3.6587    15.6647   277.7412 </r>
       <r>    -3.6100    15.3534   278.4877 </r>
       <r>    -3.5614    14.4926   279.1924 </r>
       <r>    -3.5128    13.2529   279.8368 </r>
       <r>    -3.4642    11.7161   280.4065 </r>
       <r>    -3.4155     9.9223   280.8890 </r>
       <r>    -3.3669     7.9635   281.2762 </r>
       <r>    -3.3183     6.0342   281.5696 </r>
       <r>    -3.2697     4.4013   281.7836 </r>
       <r>    -3.2210     3.3181   281.9449 </r>
       <r>    -3.1724     2.9346   282.0876 </r>
       <r>    -3.1238     3.2412   282.2452 </r>
       <r>    -3.0752     4.0610   282.4427 </r>
       <r>    -3.0266     5.1004   282.6907 </r>
       <r>    -2.9779     6.0562   282.9851 </r>
       <r>    -2.9293     6.7480   283.3133 </r>
       <r>    -2.8807     7.2010   283.6634 </r>
       <r>    -2.8321     7.6148   284.0337 </r>
       <r>    -2.7834     8.2299   284.4338 </r>
       <r>    -2.7348     9.1818   284.8803 </r>
       <r>    -2.6862    10.4393   285.3879 </r>
       <r>    -2.6376    11.8472   285.9639 </r>
       <r>    -2.5889    13.2180   286.6066 </r>
       <r>    -2.5403    14.4071   287.3072 </r>
       <r>    -2.4917    15.3500   288.0535 </r>
       <r>    -2.4431    16.0779   288.8353 </r>
       <r>    -2.3944    16.7120   289.6479 </r>
       <r>    -2.3458    17.4227   290.4950 </r>
       <r>    -2.2972    18.3438   291.3870 </r>
       <r>    -2.2486    19.4775   292.3341 </r>
       <r>    -2.2000    20.6460   293.3379 </r>
       <r>    -2.1513    21.5316   294.3849 </r>
       <r>    -2.1027    21.7971   295.4447 </r>
       <r>    -2.0541    21.2297   296.4770 </r>
       <r>    -2.0055    19.8447   297.4419 </r>
       <r>    -1.9568    17.9075   298.3126 </r>
       <r>    -1.9082    15.8641   299.0840 </r>
       <r>    -1.8596    14.2012   299.7745 </r>
       <r>    -1.8110    13.2798   300.4202 </r>
       <r>    -1.7623    13.2054   301.0623 </r>
       <r>    -1.7137    13.7857   301.7326 </r>
       <r>    -1.6651    14.5923   302.4422 </r>
       <r>    -1.6165    15.1121   303.1770 </r>
       <r>    -1.5678    14.9459   303.9037 </r>
       <r>    -1.5192    13.9816   304.5835 </r>
       <r>    -1.4706    12.4469   305.1887 </r>
       <r>    -1.4220    10.7878   305.7133 </r>
       <r>    -1.3734     9.4342   306.1720 </r>
       <r>    -1.3247     8.6069   306.5905 </r>
       <r>    -1.2761     8.3018   306.9942 </r>
       <r>    -1.2275     8.4370   307.4044 </r>
       <r>    -1.1789     9.0187   307.8429 </r>
       <r>    -1.1302    10.1751   308.3377 </r>
       <r>    -1.0816    12.0348   308.9228 </r>
       <r>    -1.0330    14.5588   309.6308 </r>
       <r>    -0.9844    17.4598   310.4797 </r>
       <r>    -0.9357    20.2635   311.4650 </r>
       <r>    -0.8871    22.4612   312.5571 </r>
       <r>    -0.8385    23.6670   313.7079 </r>
       <r>    -0.7899    23.7189   314.8612 </r>
       <r>    -0.7412    22.7130   315.9656 </r>
       <r>    -0.6926    20.9758   316.9855 </r>
       <r>    -0.6440    18.9798   317.9084 </r>
       <r>    -0.5954    17.2158   318.7455 </r>
       <r>    -0.5468    16.0532   319.5260 </r>
       <r>    -0.4981    15.6311   320.2861 </r>
       <r>    -0.4495    15.8211   321.0554 </r>
       <r>    -0.4009    16.2870   321.8473 </r>
       <r>    -0.3523    16.6304   322.6559 </r>
       <r>    -0.3036    16.5694   323.4616 </r>
       <r>    -0.2550    16.0679   324.2429 </r>
       <r>    -0.2064    15.3559   324.9895 </r>
       <r>    -0.1578    14.8415   325.7112 </r>
       <r>    -0.1091    14.9697   326.4390 </r>
       <r>    -0.0605    16.1056   327.2221 </r>
       <r>    -0.0119    18.4880   328.1211 </r>
       <r>     0.0367    22.2545   329.2032 </r>
       <r>     0.0854    27.5011   330.5404 </r>
       <r>     0.1340    34.3270   332.2095 </r>
       <r>     0.1826    42.8277   334.2919 </r>
       <r>     0.2312    53.0152   336.8697 </r>
       <r>     0.2799    64.6723   340.0143 </r>
       <r>     0.3285    77.1732   343.7668 </r>
       <r>     0.3771    89.3539   348.1115 </r>
       <r>     0.4257    99.5463   352.9518 </r>
       <r>     0.4743   105.8675   358.0994 </r>
       <r>     0.5230   106.7317   363.2891 </r>
       <r>     0.5716   101.4010   368.2196 </r>
       <r>     0.6202    90.3203   372.6113 </r>
       <r>     0.6688    75.0698   376.2614 </r>
       <r>     0.7175    57.9464   379.0790 </r>
       <r>     0.7661    41.3366   381.0889 </r>
       <r>     0.8147    27.1139   382.4073 </r>
       <r>     0.8633    16.2715   383.1985 </r>
       <r>     0.9120     8.8920   383.6308 </r>
       <r>     0.9606     4.4062   383.8451 </r>
       <r>     1.0092     1.9726   383.9410 </r>
       <r>     1.0578     0.7955   383.9797 </r>
       <r>     1.1065     0.2882   383.9937 </r>
       <r>     1.1551     0.0936   383.9982 </r>
       <r>     1.2037     0.0272   383.9996 </r>
       <r>     1.2523     0.0071   383.9999 </r>
       <r>     1.3009     0.0016   384.0000 </r>
       <r>     1.3496     0.0003   384.0000 </r>
       <r>     1.3982     0.0001   384.0000 </r>
       <r>     1.4468     0.0000   384.0000 </r>
       <r>     1.4954     0.0000   384.0000 </r>
       <r>     1.5441     0.0000   384.0000 </r>
       <r>     1.5927     0.0000   384.0000 </r>
       <r>     1.6413     0.0000   384.0000 </r>
       <r>     1.6899     0.0000   384.0000 </r>
       <r>     1.7386     0.0000   384.0000 </r>
       <r>     1.7872     0.0000   384.0000 </r>
       <r>     1.8358     0.0000   384.0000 </r>
       <r>     1.8844     0.0000   384.0000 </r>
       <r>     1.9331     0.0000   384.0000 </r>
       <r>     1.9817     0.0000   384.0000 </r>
       <r>     2.0303     0.0000   384.0000 </r>
       <r>     2.0789     0.0000   384.0000 </r>
       <r>     2.1275     0.0000   384.0000 </r>
       <r>     2.1762     0.0000   384.0000 </r>
       <r>     2.2248     0.0000   384.0000 </r>
       <r>     2.2734     0.0000   384.0000 </r>
       <r>     2.3220     0.0000   384.0000 </r>
       <r>     2.3707     0.0000   384.0000 </r>
       <r>     2.4193     0.0000   384.0000 </r>
       <r>     2.4679     0.0000   384.0000 </r>
       <r>     2.5165     0.0000   384.0000 </r>
       <r>     2.5652     0.0000   384.0000 </r>
       <r>     2.6138     0.0000   384.0000 </r>
       <r>     2.6624     0.0000   384.0000 </r>
      </set>
     </set>
    </array>
   </total>
  </dos>
 </calculation>
 <structure name="finalpos" >
  <crystal>
   <varray name="basis" >
    <v>      29.70000000       0.00000000       0.00000000 </v>
    <v>       0.00000000      29.70000000       0.00000000 </v>
    <v>       0.00000000       0.00000000      29.70000000 </v>
   </varray>
   <i name="volume">  26198.07300000 </i>
   <varray name="rec_basis" >
    <v>       0.03367003       0.00000000       0.00000000 </v>
    <v>       0.00000000       0.03367003       0.00000000 </v>
    <v>       0.00000000       0.00000000       0.03367003 </v>
   </varray>
  </crystal>
  <varray name="positions" >
   <v>       0.46548822       0.50000000       0.50000000 </v>
   <v>       0.53451178       0.50000000       0.43097643 </v>
   <v>       0.53451178       0.43097643       0.50000000 </v>
   <v>       0.53451178       0.56902357       0.50000000 </v>
   <v>       0.53451178       0.50000000       0.56902357 </v>
   <v>       0.39646465       0.50000000       0.43097643 </v>
   <v>       0.46548822       0.56902357       0.43097643 </v>
   <v>       0.46548822       0.43097643       0.43097643 </v>
   <v>       0.39646465       0.43097643       0.50000000 </v>
   <v>       0.46548822       0.43097643       0.56902357 </v>
   <v>       0.46548822       0.50000000       0.36195286 </v>
   <v>       0.46548822       0.36195286       0.50000000 </v>
   <v>       0.60353535       0.50000000       0.50000000 </v>
   <v>       0.60353535       0.43097643       0.43097643 </v>
   <v>       0.53451178       0.43097643       0.36195286 </v>
   <v>       0.53451178       0.36195286       0.43097643 </v>
   <v>       0.39646465       0.56902357       0.50000000 </v>
   <v>       0.39646465       0.50000000       0.56902357 </v>
   <v>       0.46548822       0.56902357       0.56902357 </v>
   <v>       0.46548822       0.50000000       0.63804714 </v>
   <v>       0.60353535       0.56902357       0.43097643 </v>
   <v>       0.60353535       0.50000000       0.36195286 </v>
   <v>       0.53451178       0.56902357       0.36195286 </v>
   <v>       0.46548822       0.63804714       0.50000000 </v>
   <v>       0.53451178       0.63804714       0.43097643 </v>
  </varray>
 </structure>
</modeling>
