unknown system                          
           1
    29.700000    0.000000    0.000000
     0.000000   29.700000    0.000000
     0.000000    0.000000   29.700000
   Ag
    25
Direct configuration=     1
   0.46548822  0.50000000  0.50000000
   0.53451178  0.50000000  0.43097643
   0.53451178  0.43097643  0.50000000
   0.53451178  0.56902357  0.50000000
   0.53451178  0.50000000  0.56902357
   0.39646465  0.50000000  0.43097643
   0.46548822  0.56902357  0.43097643
   0.46548822  0.43097643  0.43097643
   0.39646465  0.43097643  0.50000000
   0.46548822  0.43097643  0.56902357
   0.46548822  0.50000000  0.36195286
   0.46548822  0.36195286  0.50000000
   0.60353535  0.50000000  0.50000000
   0.60353535  0.43097643  0.43097643
   0.53451178  0.43097643  0.36195286
   0.53451178  0.36195286  0.43097643
   0.39646465  0.56902357  0.50000000
   0.39646465  0.50000000  0.56902357
   0.46548822  0.56902357  0.56902357
   0.46548822  0.50000000  0.63804714
   0.60353535  0.56902357  0.43097643
   0.60353535  0.50000000  0.36195286
   0.53451178  0.56902357  0.36195286
   0.46548822  0.63804714  0.50000000
   0.53451178  0.63804714  0.43097643
