  25  25   0   0
  0.1047923E+04  0.2970000E-08  0.2970000E-08  0.2970000E-08  0.5000000E-15
  1.000000000000000E-004
  CAR 
 unknown system                          
      2.63938234    -11.92473016  301     -3.84952105      1.00000000
    -11.925  0.0000E+00  0.0000E+00
    -11.876  0.0000E+00  0.0000E+00
    -11.828  0.0000E+00  0.0000E+00
    -11.779  0.0000E+00  0.0000E+00
    -11.731  0.0000E+00  0.0000E+00
    -11.682  0.0000E+00  0.0000E+00
    -11.633  0.0000E+00  0.0000E+00
    -11.585  0.0000E+00  0.0000E+00
    -11.536  0.0000E+00  0.0000E+00
    -11.488  0.0000E+00  0.0000E+00
    -11.439  0.0000E+00  0.0000E+00
    -11.391  0.0000E+00  0.0000E+00
    -11.342  0.0000E+00  0.0000E+00
    -11.294  0.0000E+00  0.0000E+00
    -11.245  0.0000E+00  0.0000E+00
    -11.197  0.0000E+00  0.0000E+00
    -11.148  0.0000E+00  0.0000E+00
    -11.099  0.2287E-14  0.1110E-15
    -11.051  0.3202E-13  0.1665E-14
    -11.002  0.4894E-12  0.2542E-13
    -10.954  0.6531E-11  0.3425E-12
    -10.905  0.7765E-10  0.4112E-11
    -10.857  0.8213E-09  0.4399E-10
    -10.808  0.7729E-08  0.4192E-09
    -10.760  0.6470E-07  0.3560E-08
    -10.711  0.4819E-06  0.2695E-07
    -10.663  0.3193E-05  0.1820E-06
    -10.614  0.1883E-04  0.1096E-05
    -10.565  0.9875E-04  0.5890E-05
    -10.517  0.4608E-03  0.2826E-04
    -10.468  0.1914E-02  0.1212E-03
    -10.420  0.7071E-02  0.4644E-03
    -10.371  0.2325E-01  0.1593E-02
    -10.323  0.6800E-01  0.4894E-02
    -10.274  0.1770E+00  0.1349E-01
    -10.226  0.4100E+00  0.3339E-01
    -10.177  0.8450E+00  0.7441E-01
    -10.128  0.1550E+01  0.1496E+00
    -10.080  0.2529E+01  0.2724E+00
    -10.031  0.3674E+01  0.4508E+00
     -9.983  0.4754E+01  0.6816E+00
     -9.934  0.5486E+01  0.9479E+00
     -9.886  0.5679E+01  0.1224E+01
     -9.837  0.5366E+01  0.1484E+01
     -9.789  0.4866E+01  0.1720E+01
     -9.740  0.4748E+01  0.1951E+01
     -9.692  0.5714E+01  0.2228E+01
     -9.643  0.8429E+01  0.2638E+01
     -9.594  0.1331E+02  0.3284E+01
     -9.546  0.2025E+02  0.4267E+01
     -9.497  0.2849E+02  0.5650E+01
     -9.449  0.3662E+02  0.7428E+01
     -9.400  0.4304E+02  0.9517E+01
     -9.352  0.4661E+02  0.1178E+02
     -9.303  0.4718E+02  0.1407E+02
     -9.255  0.4564E+02  0.1629E+02
     -9.206  0.4344E+02  0.1839E+02
     -9.158  0.4188E+02  0.2043E+02
     -9.109  0.4161E+02  0.2245E+02
     -9.060  0.4259E+02  0.2452E+02
     -9.012  0.4448E+02  0.2668E+02
     -8.963  0.4706E+02  0.2896E+02
     -8.915  0.5040E+02  0.3141E+02
     -8.866  0.5469E+02  0.3406E+02
     -8.818  0.5991E+02  0.3697E+02
     -8.769  0.6562E+02  0.4016E+02
     -8.721  0.7104E+02  0.4360E+02
     -8.672  0.7540E+02  0.4726E+02
     -8.624  0.7827E+02  0.5106E+02
     -8.575  0.7979E+02  0.5494E+02
     -8.526  0.8065E+02  0.5885E+02
     -8.478  0.8176E+02  0.6282E+02
     -8.429  0.8389E+02  0.6690E+02
     -8.381  0.8738E+02  0.7114E+02
     -8.332  0.9214E+02  0.7561E+02
     -8.284  0.9781E+02  0.8036E+02
     -8.235  0.1040E+03  0.8541E+02
     -8.187  0.1104E+03  0.9077E+02
     -8.138  0.1165E+03  0.9642E+02
     -8.090  0.1214E+03  0.1023E+03
     -8.041  0.1238E+03  0.1083E+03
     -7.992  0.1227E+03  0.1143E+03
     -7.944  0.1174E+03  0.1200E+03
     -7.895  0.1086E+03  0.1253E+03
     -7.847  0.9753E+02  0.1300E+03
     -7.798  0.8610E+02  0.1342E+03
     -7.750  0.7615E+02  0.1379E+03
     -7.701  0.6913E+02  0.1412E+03
     -7.653  0.6594E+02  0.1444E+03
     -7.604  0.6688E+02  0.1477E+03
     -7.555  0.7165E+02  0.1511E+03
     -7.507  0.7942E+02  0.1550E+03
     -7.458  0.8897E+02  0.1593E+03
     -7.410  0.9903E+02  0.1641E+03
     -7.361  0.1086E+03  0.1694E+03
     -7.313  0.1174E+03  0.1751E+03
     -7.264  0.1257E+03  0.1812E+03
     -7.216  0.1338E+03  0.1877E+03
     -7.167  0.1419E+03  0.1946E+03
     -7.119  0.1492E+03  0.2018E+03
     -7.070  0.1542E+03  0.2093E+03
     -7.021  0.1553E+03  0.2169E+03
     -6.973  0.1511E+03  0.2242E+03
     -6.924  0.1411E+03  0.2310E+03
     -6.876  0.1260E+03  0.2372E+03
     -6.827  0.1075E+03  0.2424E+03
     -6.779  0.8763E+02  0.2466E+03
     -6.730  0.6831E+02  0.2499E+03
     -6.682  0.5111E+02  0.2524E+03
     -6.633  0.3694E+02  0.2542E+03
     -6.585  0.2603E+02  0.2555E+03
     -6.536  0.1807E+02  0.2564E+03
     -6.487  0.1242E+02  0.2570E+03
     -6.439  0.8417E+01  0.2574E+03
     -6.390  0.5547E+01  0.2576E+03
     -6.342  0.3507E+01  0.2578E+03
     -6.293  0.2154E+01  0.2579E+03
     -6.245  0.1428E+01  0.2580E+03
     -6.196  0.1310E+01  0.2580E+03
     -6.148  0.1808E+01  0.2581E+03
     -6.099  0.2931E+01  0.2583E+03
     -6.051  0.4621E+01  0.2585E+03
     -6.002  0.6688E+01  0.2588E+03
     -5.953  0.8783E+01  0.2593E+03
     -5.905  0.1048E+02  0.2598E+03
     -5.856  0.1146E+02  0.2603E+03
     -5.808  0.1163E+02  0.2609E+03
     -5.759  0.1121E+02  0.2614E+03
     -5.711  0.1057E+02  0.2619E+03
     -5.662  0.1004E+02  0.2624E+03
     -5.614  0.9761E+01  0.2629E+03
     -5.565  0.9675E+01  0.2634E+03
     -5.517  0.9598E+01  0.2638E+03
     -5.468  0.9329E+01  0.2643E+03
     -5.419  0.8715E+01  0.2647E+03
     -5.371  0.7700E+01  0.2651E+03
     -5.322  0.6344E+01  0.2654E+03
     -5.274  0.4814E+01  0.2656E+03
     -5.225  0.3332E+01  0.2658E+03
     -5.177  0.2087E+01  0.2659E+03
     -5.128  0.1177E+01  0.2660E+03
     -5.080  0.5969E+00  0.2660E+03
     -5.031  0.2783E+00  0.2660E+03
     -4.983  0.1399E+00  0.2660E+03
     -4.934  0.1294E+00  0.2660E+03
     -4.885  0.2430E+00  0.2660E+03
     -4.837  0.5286E+00  0.2660E+03
     -4.788  0.1071E+01  0.2661E+03
     -4.740  0.1959E+01  0.2662E+03
     -4.691  0.3230E+01  0.2663E+03
     -4.643  0.4822E+01  0.2666E+03
     -4.594  0.6559E+01  0.2669E+03
     -4.546  0.8195E+01  0.2673E+03
     -4.497  0.9510E+01  0.2678E+03
     -4.448  0.1040E+02  0.2683E+03
     -4.400  0.1092E+02  0.2688E+03
     -4.351  0.1126E+02  0.2693E+03
     -4.303  0.1164E+02  0.2699E+03
     -4.254  0.1215E+02  0.2705E+03
     -4.206  0.1266E+02  0.2711E+03
     -4.157  0.1288E+02  0.2717E+03
     -4.109  0.1252E+02  0.2723E+03
     -4.060  0.1157E+02  0.2729E+03
     -4.012  0.1036E+02  0.2734E+03
     -3.963  0.9443E+01  0.2739E+03
     -3.914  0.9342E+01  0.2743E+03
     -3.866  0.1023E+02  0.2748E+03
     -3.817  0.1184E+02  0.2754E+03
     -3.769  0.1361E+02  0.2761E+03
     -3.720  0.1499E+02  0.2768E+03
     -3.672  0.1563E+02  0.2775E+03
     -3.623  0.1550E+02  0.2783E+03
     -3.575  0.1477E+02  0.2790E+03
     -3.526  0.1362E+02  0.2797E+03
     -3.478  0.1216E+02  0.2803E+03
     -3.429  0.1044E+02  0.2808E+03
     -3.380  0.8512E+01  0.2812E+03
     -3.332  0.6552E+01  0.2815E+03
     -3.283  0.4811E+01  0.2817E+03
     -3.235  0.3555E+01  0.2819E+03
     -3.186  0.2969E+01  0.2820E+03
     -3.138  0.3091E+01  0.2822E+03
     -3.089  0.3790E+01  0.2824E+03
     -3.041  0.4798E+01  0.2826E+03
     -2.992  0.5803E+01  0.2829E+03
     -2.944  0.6577E+01  0.2832E+03
     -2.895  0.7084E+01  0.2836E+03
     -2.846  0.7482E+01  0.2839E+03
     -2.798  0.8016E+01  0.2843E+03
     -2.749  0.8863E+01  0.2847E+03
     -2.701  0.1004E+02  0.2852E+03
     -2.652  0.1142E+02  0.2858E+03
     -2.604  0.1282E+02  0.2864E+03
     -2.555  0.1407E+02  0.2871E+03
     -2.507  0.1509E+02  0.2878E+03
     -2.458  0.1587E+02  0.2886E+03
     -2.410  0.1651E+02  0.2894E+03
     -2.361  0.1718E+02  0.2902E+03
     -2.312  0.1803E+02  0.2911E+03
     -2.264  0.1910E+02  0.2920E+03
     -2.215  0.2029E+02  0.2930E+03
     -2.167  0.2130E+02  0.2940E+03
     -2.118  0.2180E+02  0.2951E+03
     -2.070  0.2151E+02  0.2962E+03
     -2.021  0.2037E+02  0.2971E+03
     -1.973  0.1857E+02  0.2980E+03
     -1.924  0.1651E+02  0.2988E+03
     -1.875  0.1467E+02  0.2996E+03
     -1.827  0.1349E+02  0.3002E+03
     -1.778  0.1314E+02  0.3008E+03
     -1.730  0.1354E+02  0.3015E+03
     -1.681  0.1433E+02  0.3022E+03
     -1.633  0.1500E+02  0.3029E+03
     -1.584  0.1509E+02  0.3037E+03
     -1.536  0.1439E+02  0.3044E+03
     -1.487  0.1300E+02  0.3050E+03
     -1.439  0.1134E+02  0.3055E+03
     -1.390  0.9841E+01  0.3060E+03
     -1.341  0.8826E+01  0.3064E+03
     -1.293  0.8351E+01  0.3069E+03
     -1.244  0.8339E+01  0.3073E+03
     -1.196  0.8754E+01  0.3077E+03
     -1.147  0.9688E+01  0.3082E+03
     -1.099  0.1129E+02  0.3087E+03
     -1.050  0.1359E+02  0.3094E+03
     -1.002  0.1640E+02  0.3102E+03
     -0.953  0.1930E+02  0.3111E+03
     -0.905  0.2176E+02  0.3122E+03
     -0.856  0.2336E+02  0.3133E+03
     -0.807  0.2383E+02  0.3144E+03
     -0.759  0.2318E+02  0.3156E+03
     -0.710  0.2166E+02  0.3166E+03
     -0.662  0.1969E+02  0.3176E+03
     -0.613  0.1779E+02  0.3184E+03
     -0.565  0.1638E+02  0.3192E+03
     -0.516  0.1568E+02  0.3200E+03
     -0.468  0.1568E+02  0.3208E+03
     -0.419  0.1609E+02  0.3215E+03
     -0.371  0.1653E+02  0.3223E+03
     -0.322  0.1666E+02  0.3231E+03
     -0.273  0.1634E+02  0.3239E+03
     -0.225  0.1572E+02  0.3247E+03
     -0.176  0.1516E+02  0.3254E+03
     -0.128  0.1515E+02  0.3262E+03
     -0.079  0.1612E+02  0.3270E+03
     -0.031  0.1839E+02  0.3279E+03
      0.018  0.2215E+02  0.3289E+03
      0.066  0.2752E+02  0.3303E+03
      0.115  0.3457E+02  0.3319E+03
      0.163  0.4337E+02  0.3340E+03
      0.212  0.5387E+02  0.3367E+03
      0.261  0.6578E+02  0.3399E+03
      0.309  0.7842E+02  0.3437E+03
      0.358  0.9060E+02  0.3481E+03
      0.406  0.1006E+03  0.3529E+03
      0.455  0.1067E+03  0.3581E+03
      0.503  0.1072E+03  0.3633E+03
      0.552  0.1016E+03  0.3683E+03
      0.600  0.9030E+02  0.3726E+03
      0.649  0.7497E+02  0.3763E+03
      0.698  0.5785E+02  0.3791E+03
      0.746  0.4128E+02  0.3811E+03
      0.795  0.2709E+02  0.3824E+03
      0.843  0.1626E+02  0.3832E+03
      0.892  0.8885E+01  0.3836E+03
      0.940  0.4401E+01  0.3838E+03
      0.989  0.1968E+01  0.3839E+03
      1.037  0.7927E+00  0.3840E+03
      1.086  0.2867E+00  0.3840E+03
      1.134  0.9298E-01  0.3840E+03
      1.183  0.2699E-01  0.3840E+03
      1.232  0.7005E-02  0.3840E+03
      1.280  0.1624E-02  0.3840E+03
      1.329  0.3362E-03  0.3840E+03
      1.377  0.6208E-04  0.3840E+03
      1.426  0.1022E-04  0.3840E+03
      1.474  0.1501E-05  0.3840E+03
      1.523  0.1964E-06  0.3840E+03
      1.571  0.2289E-07  0.3840E+03
      1.620  0.2377E-08  0.3840E+03
      1.668  0.2199E-09  0.3840E+03
      1.717  0.1812E-10  0.3840E+03
      1.766  0.1326E-11  0.3840E+03
      1.814  0.9148E-13  0.3840E+03
      1.863  0.0000E+00  0.3840E+03
      1.911  0.0000E+00  0.3840E+03
      1.960  0.0000E+00  0.3840E+03
      2.008  0.0000E+00  0.3840E+03
      2.057  0.0000E+00  0.3840E+03
      2.105  0.0000E+00  0.3840E+03
      2.154  0.0000E+00  0.3840E+03
      2.202  0.0000E+00  0.3840E+03
      2.251  0.0000E+00  0.3840E+03
      2.300  0.0000E+00  0.3840E+03
      2.348  0.0000E+00  0.3840E+03
      2.397  0.0000E+00  0.3840E+03
      2.445  0.0000E+00  0.3840E+03
      2.494  0.0000E+00  0.3840E+03
      2.542  0.0000E+00  0.3840E+03
      2.591  0.0000E+00  0.3840E+03
      2.639  0.0000E+00  0.3840E+03
