       N       E                     dE             d eps       ncg     rms          rms(c)
DAV:   1     0.245063531063E+04    0.24506E+04   -0.46502E+04   384   0.676E+02
DAV:   2     0.842732892930E+03   -0.16079E+04   -0.15601E+04   768   0.782E+01
DAV:   3    -0.185061996737E+02   -0.86124E+03   -0.83966E+03   576   0.884E+01
DAV:   4    -0.539506574769E+02   -0.35444E+02   -0.35415E+02   384   0.316E+01
DAV:   5    -0.542917328711E+02   -0.34108E+00   -0.34107E+00   576   0.326E+00    0.161E+01
DAV:   6    -0.506129922132E+02    0.36787E+01   -0.12885E+01   576   0.894E+00    0.104E+01
DAV:   7    -0.503607450585E+02    0.25225E+00   -0.97843E-01   576   0.159E+00    0.517E+00
DAV:   8    -0.503207385886E+02    0.40006E-01   -0.98778E-02   672   0.681E-01    0.504E-01
DAV:   9    -0.503183706196E+02    0.23680E-02   -0.88177E-03   672   0.327E-01    0.161E-01
DAV:  10    -0.503182230378E+02    0.14758E-03   -0.98953E-04   672   0.992E-02    0.993E-02
DAV:  11    -0.503189289596E+02   -0.70592E-03   -0.18472E-03   480   0.636E-02    0.465E-02
DAV:  12    -0.503203803612E+02   -0.14514E-02   -0.61519E-04   576   0.368E-02    0.308E-02
DAV:  13    -0.503227654014E+02   -0.23850E-02   -0.38660E-04   288   0.242E-02    0.188E-02
DAV:  14    -0.503247776661E+02   -0.20123E-02   -0.29827E-04   480   0.170E-02    0.109E-02
DAV:  15    -0.503259492287E+02   -0.11716E-02   -0.61127E-05   288   0.953E-03    0.593E-03
DAV:  16    -0.503267438631E+02   -0.79463E-03   -0.40367E-05   480   0.521E-03    0.382E-03
DAV:  17    -0.503273201521E+02   -0.57629E-03   -0.16930E-05   480   0.432E-03    0.194E-03
DAV:  18    -0.503275566784E+02   -0.23653E-03   -0.64805E-06   384   0.209E-03    0.113E-03
DAV:  19    -0.503277031243E+02   -0.14645E-03   -0.37453E-06   480   0.119E-03    0.600E-04
DAV:  20    -0.503277874094E+02   -0.84285E-04   -0.23981E-06   288   0.907E-04
   1 F= -.50327787E+02 E0= -.50212434E+02  d E =-.230707E+00
