<?xml version="1.0" encoding="ISO-8859-1"?>
<modeling>
 <generator>
  <i name="program" type="string">vasp </i>
  <i name="version" type="string">6.3.0  </i>
  <i name="subversion" type="string">20Jan22 (build Jul 12 2024 16:06:18) gamma-only                       parallel </i>
  <i name="platform" type="string">LinuxIFC </i>
  <i name="date" type="string">2024 10 29 </i>
  <i name="time" type="string">18:43:35 </i>
 </generator>
 <incar>
  <i type="string" name="PREC">Accurate</i>
  <i type="int" name="IBRION">    -1</i>
  <i name="EDIFF">      0.00010000</i>
  <i name="EDIFFG">     -0.08000000</i>
  <i type="int" name="NSW">     0</i>
  <i name="ENCUT">    400.00000000</i>
  <i type="string" name="LREAL">Auto</i>
  <i type="int" name="ISMEAR">     0</i>
  <i name="SIGMA">      0.20000000</i>
  <i type="logical" name="LWAVE"> F  </i>
  <i type="logical" name="LCHARG"> F  </i>
  <i type="logical" name="LSCALAPACK"> F  </i>
  <i type="string" name="GGA">PE</i>
 </incar>
 <primitive_cell>
  <structure name="primitive_cell" >
   <crystal>
    <varray name="basis" >
     <v>      29.70000000       0.00000000       0.00000000 </v>
     <v>       0.00000000      29.70000000       0.00000000 </v>
     <v>       0.00000000       0.00000000      29.70000000 </v>
    </varray>
    <i name="volume">  26198.07300000 </i>
    <varray name="rec_basis" >
     <v>       0.03367003       0.00000000       0.00000000 </v>
     <v>       0.00000000       0.03367003       0.00000000 </v>
     <v>       0.00000000       0.00000000       0.03367003 </v>
    </varray>
   </crystal>
   <varray name="positions" >
    <v>       0.46548822       0.50000000       0.50000000 </v>
    <v>       0.53451178       0.50000000       0.43097643 </v>
    <v>       0.53451178       0.43097643       0.50000000 </v>
    <v>       0.53451178       0.56902357       0.50000000 </v>
    <v>       0.53451178       0.50000000       0.56902357 </v>
    <v>       0.39646465       0.50000000       0.43097643 </v>
    <v>       0.46548822       0.56902357       0.43097643 </v>
    <v>       0.46548822       0.43097643       0.43097643 </v>
    <v>       0.39646465       0.43097643       0.50000000 </v>
    <v>       0.46548822       0.43097643       0.56902357 </v>
    <v>       0.46548822       0.50000000       0.36195286 </v>
    <v>       0.46548822       0.36195286       0.50000000 </v>
    <v>       0.60353535       0.50000000       0.50000000 </v>
    <v>       0.60353535       0.43097643       0.43097643 </v>
    <v>       0.53451178       0.43097643       0.36195286 </v>
    <v>       0.53451178       0.36195286       0.43097643 </v>
    <v>       0.39646465       0.56902357       0.50000000 </v>
    <v>       0.39646465       0.50000000       0.56902357 </v>
    <v>       0.46548822       0.56902357       0.56902357 </v>
    <v>       0.46548822       0.50000000       0.63804714 </v>
    <v>       0.60353535       0.56902357       0.43097643 </v>
    <v>       0.60353535       0.50000000       0.36195286 </v>
    <v>       0.53451178       0.56902357       0.36195286 </v>
    <v>       0.46548822       0.63804714       0.50000000 </v>
    <v>       0.53451178       0.63804714       0.43097643 </v>
   </varray>
  </structure>
  <varray name="primitive_index" >
   <v type="int" >        1 </v>
   <v type="int" >        2 </v>
   <v type="int" >        3 </v>
   <v type="int" >        4 </v>
   <v type="int" >        5 </v>
   <v type="int" >        6 </v>
   <v type="int" >        7 </v>
   <v type="int" >        8 </v>
   <v type="int" >        9 </v>
   <v type="int" >       10 </v>
   <v type="int" >       11 </v>
   <v type="int" >       12 </v>
   <v type="int" >       13 </v>
   <v type="int" >       14 </v>
   <v type="int" >       15 </v>
   <v type="int" >       16 </v>
   <v type="int" >       17 </v>
   <v type="int" >       18 </v>
   <v type="int" >       19 </v>
   <v type="int" >       20 </v>
   <v type="int" >       21 </v>
   <v type="int" >       22 </v>
   <v type="int" >       23 </v>
   <v type="int" >       24 </v>
   <v type="int" >       25 </v>
  </varray>
 </primitive_cell>
 <kpoints>
  <generation param="Monkhorst-Pack">
   <v type="int" name="divisions">       1        1        1 </v>
   <v name="usershift">      0.00000000       0.00000000       0.00000000 </v>
   <v name="genvec1">      1.00000000       0.00000000       0.00000000 </v>
   <v name="genvec2">      0.00000000       1.00000000       0.00000000 </v>
   <v name="genvec3">      0.00000000       0.00000000       1.00000000 </v>
   <v name="shift">      0.00000000       0.00000000       0.00000000 </v>
  </generation>
  <varray name="kpointlist" >
   <v>       0.00000000       0.00000000       0.00000000 </v>
  </varray>
  <varray name="weights" >
   <v>       1.00000000 </v>
  </varray>
 </kpoints>
 <parameters>
  <separator name="general" >
   <i type="string" name="SYSTEM">unknown system</i>
   <i type="logical" name="LCOMPAT"> F  </i>
  </separator>
  <separator name="electronic" >
   <i type="string" name="PREC">accura</i>
   <i name="ENMAX">    400.00000000</i>
   <i name="ENAUG">    412.49600000</i>
   <i name="EDIFF">      0.00010000</i>
   <i type="int" name="IALGO">    38</i>
   <i type="int" name="IWAVPR">    10</i>
   <i type="int" name="NBANDS">   192</i>
   <i type="int" name="NBANDSLOW">    -1</i>
   <i type="int" name="NBANDSHIGH">    -1</i>
   <i name="NELECT">    275.00000000</i>
   <i type="int" name="TURBO">     0</i>
   <i type="int" name="IRESTART">     0</i>
   <i type="int" name="NREBOOT">     0</i>
   <i type="int" name="NMIN">     0</i>
   <i name="EREF">      0.00000000</i>
   <separator name="electronic smearing" >
    <i type="int" name="ISMEAR">     0</i>
    <i name="SIGMA">      0.20000000</i>
    <i name="KSPACING">      0.50000000</i>
    <i type="logical" name="KGAMMA"> T  </i>
    <i type="logical" name="KBLOWUP"> T  </i>
   </separator>
   <separator name="electronic projectors" >
    <i type="logical" name="LREAL"> T  </i>
    <v name="ROPT">     -0.00025000</v>
    <i type="int" name="LMAXPAW">  -100</i>
    <i type="int" name="LMAXMIX">     2</i>
    <i type="logical" name="NLSPLINE"> F  </i>
   </separator>
   <separator name="electronic startup" >
    <i type="int" name="ISTART">     0</i>
    <i type="int" name="ICHARG">     2</i>
    <i type="int" name="INIWAV">     1</i>
   </separator>
   <separator name="electronic spin" >
    <i type="int" name="ISPIN">     1</i>
    <i type="logical" name="LNONCOLLINEAR"> F  </i>
    <v name="MAGMOM">      1.00000000      1.00000000      1.00000000      1.00000000      1.00000000      1.00000000      1.00000000      1.00000000      1.00000000      1.00000000      1.00000000      1.00000000      1.00000000      1.00000000      1.00000000      1.00000000      1.00000000      1.00000000      1.00000000      1.00000000
      1.00000000      1.00000000      1.00000000      1.00000000      1.00000000</v>
    <i name="NUPDOWN">     -1.00000000</i>
    <i type="logical" name="LSORBIT"> F  </i>
    <v name="SAXIS">      0.00000000      0.00000000      1.00000000</v>
    <i type="logical" name="LSPIRAL"> F  </i>
    <v name="QSPIRAL">      0.00000000      0.00000000      0.00000000</v>
    <i type="logical" name="LZEROZ"> F  </i>
   </separator>
   <separator name="electronic exchange-correlation" >
    <i type="logical" name="LASPH"> F  </i>
    <i type="logical" name="LMETAGGA"> F  </i>
   </separator>
   <separator name="electronic convergence" >
    <i type="int" name="NELM">    60</i>
    <i type="int" name="NELMDL">    -5</i>
    <i type="int" name="NELMIN">     2</i>
    <i name="ENINI">    400.00000000</i>
    <separator name="electronic convergence detail" >
     <i type="logical" name="LDIAG"> T  </i>
     <i type="logical" name="LSUBROT"> F  </i>
     <i name="WEIMIN">      0.00000000</i>
     <i name="EBREAK">      0.00000013</i>
     <i name="DEPER">      0.30000000</i>
     <i type="int" name="NRMM">     4</i>
     <i name="TIME">      0.40000000</i>
    </separator>
   </separator>
   <separator name="electronic mixer" >
    <i name="AMIX">      0.40000000</i>
    <i name="BMIX">      1.00000000</i>
    <i name="AMIN">      0.10000000</i>
    <i name="AMIX_MAG">      1.60000000</i>
    <i name="BMIX_MAG">      1.00000000</i>
    <separator name="electronic mixer details" >
     <i type="int" name="IMIX">     4</i>
     <i type="logical" name="MIXFIRST"> F  </i>
     <i type="int" name="MAXMIX">   -45</i>
     <i name="WC">    100.00000000</i>
     <i type="int" name="INIMIX">     1</i>
     <i type="int" name="MIXPRE">     1</i>
     <i type="int" name="MREMOVE">     5</i>
    </separator>
   </separator>
   <separator name="electronic dipolcorrection" >
    <i type="logical" name="LDIPOL"> F  </i>
    <i type="logical" name="LMONO"> F  </i>
    <i type="int" name="IDIPOL">     0</i>
    <i name="EPSILON">      1.00000000</i>
    <v name="DIPOL">   -100.00000000   -100.00000000   -100.00000000</v>
    <i name="EFIELD">      0.00000000</i>
   </separator>
  </separator>
  <separator name="grids" >
   <i type="int" name="NGX">   196</i>
   <i type="int" name="NGY">   196</i>
   <i type="int" name="NGZ">   196</i>
   <i type="int" name="NGXF">   392</i>
   <i type="int" name="NGYF">   392</i>
   <i type="int" name="NGZF">   392</i>
   <i type="logical" name="ADDGRID"> F  </i>
  </separator>
  <separator name="ionic" >
   <i type="int" name="NSW">     0</i>
   <i type="int" name="IBRION">    -1</i>
   <i type="int" name="MDALGO">     0</i>
   <i type="int" name="ISIF">     2</i>
   <i name="PSTRESS">      0.00000000</i>
   <i name="EDIFFG">     -0.08000000</i>
   <i type="int" name="NFREE">     0</i>
   <i name="POTIM">      0.50000000</i>
   <i name="SMASS">     -3.00000000</i>
   <i name="SCALEE">      1.00000000</i>
  </separator>
  <separator name="ionic md" >
   <i name="TEBEG">      0.00010000</i>
   <i name="TEEND">      0.00010000</i>
   <i type="int" name="NBLOCK">     1</i>
   <i type="int" name="KBLOCK">     1</i>
   <i type="int" name="NPACO">   256</i>
   <i name="APACO">     10.00000000</i>
  </separator>
  <separator name="symmetry" >
   <i type="int" name="ISYM">     2</i>
   <i name="SYMPREC">      0.00001000</i>
  </separator>
  <separator name="dos" >
   <i type="int" name="LORBIT">     0</i>
   <v name="RWIGS">     -1.00000000</v>
   <i type="int" name="NEDOS">   301</i>
   <i name="EMIN">     10.00000000</i>
   <i name="EMAX">    -10.00000000</i>
   <i name="EFERMI">      0.00000000</i>
  </separator>
  <separator name="writing" >
   <i type="int" name="NWRITE">     2</i>
   <i type="logical" name="LWAVE"> F  </i>
   <i type="logical" name="LDOWNSAMPLE"> F  </i>
   <i type="logical" name="LCHARG"> F  </i>
   <i type="logical" name="LPARD"> F  </i>
   <i type="logical" name="LVTOT"> F  </i>
   <i type="logical" name="LVHAR"> F  </i>
   <i type="logical" name="LELF"> F  </i>
   <i type="logical" name="LOPTICS"> F  </i>
   <v name="STM">      0.00000000      0.00000000      0.00000000      0.00000000      0.00000000      0.00000000      0.00000000</v>
  </separator>
  <separator name="performance" >
   <i type="int" name="NPAR">    96</i>
   <i type="int" name="NSIM">     4</i>
   <i type="int" name="NBLK">    -1</i>
   <i type="logical" name="LPLANE"> T  </i>
   <i type="logical" name="LSCALAPACK"> F  </i>
   <i type="logical" name="LSCAAWARE"> F  </i>
   <i type="logical" name="LSCALU"> F  </i>
   <i type="logical" name="LASYNC"> F  </i>
   <i type="logical" name="LORBITALREAL"> F  </i>
  </separator>
  <separator name="miscellaneous" >
   <i type="int" name="IDIOT">     3</i>
   <i type="int" name="PHON_NSTRUCT">    -1</i>
   <i type="logical" name="LMUSIC"> F  </i>
   <v name="POMASS">    107.86800000</v>
   <v name="DARWINR">      0.00000000</v>
   <v name="DARWINV">      1.00000000</v>
   <i type="logical" name="LCORR"> T  </i>
  </separator>
  <i type="logical" name="GGA_COMPAT"> T  </i>
  <i type="logical" name="LBERRY"> F  </i>
  <i type="int" name="ICORELEVEL">     0</i>
  <i type="logical" name="LDAU"> F  </i>
  <i type="int" name="I_CONSTRAINED_M">     0</i>
  <separator name="electronic exchange-correlation" >
   <i type="string" name="GGA">PE</i>
   <i type="int" name="VOSKOWN">     0</i>
   <i type="logical" name="LHFCALC"> F  </i>
   <i type="string" name="PRECFOCK"></i>
   <i type="logical" name="LSYMGRAD"> F  </i>
   <i type="logical" name="LHFONE"> F  </i>
   <i type="logical" name="LRHFCALC"> F  </i>
   <i type="logical" name="LTHOMAS"> F  </i>
   <i type="logical" name="LMODELHF"> F  </i>
   <i type="logical" name="LFOCKACE"> F  </i>
   <i name="ENCUT4O">     -1.00000000</i>
   <i type="int" name="EXXOEP">     0</i>
   <i type="int" name="FOURORBIT">     0</i>
   <i name="AEXX">      0.00000000</i>
   <i name="HFALPHA">      0.00000000</i>
   <i name="MCALPHA">      0.00000000</i>
   <i name="ALDAX">      1.00000000</i>
   <i name="AGGAX">      1.00000000</i>
   <i name="ALDAC">      1.00000000</i>
   <i name="AGGAC">      1.00000000</i>
   <i type="int" name="NKREDX">     1</i>
   <i type="int" name="NKREDY">     1</i>
   <i type="int" name="NKREDZ">     1</i>
   <i type="logical" name="SHIFTRED"> F  </i>
   <i type="logical" name="ODDONLY"> F  </i>
   <i type="logical" name="EVENONLY"> F  </i>
   <i type="int" name="LMAXFOCK">     0</i>
   <i type="int" name="NMAXFOCKAE">     0</i>
   <i type="logical" name="LFOCKAEDFT"> F  </i>
   <i name="HFSCREEN">      0.00000000</i>
   <i name="HFSCREENC">      0.00000000</i>
   <i type="int" name="NBANDSGWLOW">     0</i>
  </separator>
  <separator name="vdW DFT" >
   <i type="logical" name="LUSE_VDW"> F  </i>
   <i name="Zab_VDW">     -0.84910000</i>
   <i name="PARAM1">      0.12340000</i>
   <i name="PARAM2">      1.00000000</i>
   <i name="PARAM3">      0.00000000</i>
  </separator>
  <separator name="model GW" >
   <i type="int" name="MODEL_GW">     0</i>
   <i name="MODEL_EPS0">    628.75375200</i>
   <i name="MODEL_ALPHA">      1.00000000</i>
  </separator>
  <separator name="linear response parameters" >
   <i type="logical" name="LEPSILON"> F  </i>
   <i type="logical" name="LRPA"> F  </i>
   <i type="logical" name="LNABLA"> F  </i>
   <i type="logical" name="LVEL"> F  </i>
   <i name="CSHIFT">      0.10000000</i>
   <i name="OMEGAMAX">     -1.00000000</i>
   <i name="DEG_THRESHOLD">      0.00200000</i>
   <i name="RTIME">     -0.10000000</i>
   <i name="WPLASMAI">      0.00000000</i>
   <v name="DFIELD">      0.00000000      0.00000000      0.00000000</v>
   <v name="WPLASMA">      0.00000000      0.00000000      0.00000000      0.00000000      0.00000000      0.00000000      0.00000000      0.00000000      0.00000000</v>
  </separator>
  <separator name="orbital magnetization" >
   <i type="logical" name="NUCIND"> F  </i>
   <v name="MAGPOS">      0.00000000      0.00000000      0.00000000</v>
   <i type="logical" name="LNICSALL"> T  </i>
   <i type="logical" name="ORBITALMAG"> F  </i>
   <i type="logical" name="LMAGBLOCH"> F  </i>
   <i type="logical" name="LCHIMAG"> F  </i>
   <i type="logical" name="LGAUGE"> T  </i>
   <i type="int" name="MAGATOM">     0</i>
   <v name="MAGDIPOL">      0.00000000      0.00000000      0.00000000</v>
   <v name="AVECCONST">      0.00000000      0.00000000      0.00000000</v>
  </separator>
  <separator name="response functions" >
   <i type="logical" name="LFINITE_TEMPERATURE"> F  </i>
   <i type="logical" name="LADDER"> F  </i>
   <i type="logical" name="LRPAFORCE"> F  </i>
   <i type="logical" name="LFXC"> F  </i>
   <i type="logical" name="LHARTREE"> T  </i>
   <i type="int" name="IBSE">     0</i>
   <v type="int" name="KPOINT">    -1     0     0     0</v>
   <i type="logical" name="LTCTC"> F  </i>
   <i type="logical" name="LTCTE"> F  </i>
   <i type="logical" name="LTETE"> F  </i>
   <i type="logical" name="LTRIPLET"> F  </i>
   <i type="logical" name="LFXCEPS"> F  </i>
   <i type="logical" name="LFXHEG"> F  </i>
   <i type="int" name="NATURALO">     2</i>
   <i type="logical" name="LHOLEGF"> F  </i>
   <i type="logical" name="L2ORDER"> F  </i>
   <i type="logical" name="LDMP1"> F  </i>
   <i type="logical" name="LMP2LT"> F  </i>
   <i type="logical" name="LSMP2LT"> F  </i>
   <i type="logical" name="LGWLF"> F  </i>
   <i name="ENCUTGW">     -2.00000000</i>
   <i name="ENCUTGWSOFT">     -2.00000000</i>
   <i name="ENCUTLF">     -1.00000000</i>
   <i type="logical" name="LESF_SPLINES"> F  </i>
   <i type="int" name="LMAXMP2">    -1</i>
   <i name="SCISSOR">      0.00000000</i>
   <i type="int" name="NOMEGA">     0</i>
   <i type="int" name="NOMEGAR">     0</i>
   <i type="int" name="NBANDSGW">    -1</i>
   <i type="int" name="NBANDSO">    -1</i>
   <i type="int" name="NBANDSV">    -1</i>
   <i type="int" name="NELMGW">     1</i>
   <i type="int" name="NELMHF">     1</i>
   <i type="int" name="DIM">     3</i>
   <i type="int" name="IESPILON">     4</i>
   <i type="int" name="ANTIRES">     0</i>
   <i name="OMEGAMAX">    -30.00000000</i>
   <i name="OMEGAMIN">    -30.00000000</i>
   <i name="OMEGATL">   -200.00000000</i>
   <i type="int" name="OMEGAGRID">     0</i>
   <i name="CSHIFT">     -0.10000000</i>
   <i type="logical" name="LSELFENERGY"> F  </i>
   <i type="logical" name="LSPECTRAL"> F  </i>
   <i type="logical" name="LSPECTRALGW"> F  </i>
   <i type="logical" name="LSINGLES"> F  </i>
   <i type="logical" name="LFERMIGW"> F  </i>
   <i type="logical" name="ODDONLYGW"> F  </i>
   <i type="logical" name="EVENONLYGW"> F  </i>
   <i type="int" name="NKREDLFX">     1</i>
   <i type="int" name="NKREDLFY">     1</i>
   <i type="int" name="NKREDLFZ">     1</i>
   <i type="int" name="MAXMEM">  2800</i>
   <i type="int" name="TELESCOPE">     0</i>
   <i type="int" name="NTAUPAR">    -1</i>
   <i type="int" name="NOMEGAPAR">    -1</i>
   <i name="DAMP_NEWTON">      0.80000001</i>
   <i name="LAMBDA">      1.00000000</i>
  </separator>
  <separator name="External order field" >
   <i name="OFIELD_KAPPA">      0.00000000</i>
   <v name="OFIELD_K">      0.00000000      0.00000000      0.00000000</v>
   <i name="OFIELD_Q6_NEAR">      0.00000000</i>
   <i name="OFIELD_Q6_FAR">      0.00000000</i>
   <i name="OFIELD_A">      0.00000000</i>
  </separator>
  <separator name="optional k-points parameters" >
   <i type="int" name="KPOINTS_OPT_MODE">     1</i>
   <i type="logical" name="LKPOINTS_OPT"> F  </i>
  </separator>
  <separator name="solvation model" >
   <i type="logical" name="LSOL"> F  </i>
  </separator>
 </parameters>
 <atominfo>
  <atoms>      25 </atoms>
  <types>       1 </types>
  <array name="atoms" >
   <dimension dim="1">ion</dimension>
   <field type="string">element</field>
   <field type="int">atomtype</field>
   <set>
    <rc><c>Ag</c><c>   1</c></rc>
    <rc><c>Ag</c><c>   1</c></rc>
    <rc><c>Ag</c><c>   1</c></rc>
    <rc><c>Ag</c><c>   1</c></rc>
    <rc><c>Ag</c><c>   1</c></rc>
    <rc><c>Ag</c><c>   1</c></rc>
    <rc><c>Ag</c><c>   1</c></rc>
    <rc><c>Ag</c><c>   1</c></rc>
    <rc><c>Ag</c><c>   1</c></rc>
    <rc><c>Ag</c><c>   1</c></rc>
    <rc><c>Ag</c><c>   1</c></rc>
    <rc><c>Ag</c><c>   1</c></rc>
    <rc><c>Ag</c><c>   1</c></rc>
    <rc><c>Ag</c><c>   1</c></rc>
    <rc><c>Ag</c><c>   1</c></rc>
    <rc><c>Ag</c><c>   1</c></rc>
    <rc><c>Ag</c><c>   1</c></rc>
    <rc><c>Ag</c><c>   1</c></rc>
    <rc><c>Ag</c><c>   1</c></rc>
    <rc><c>Ag</c><c>   1</c></rc>
    <rc><c>Ag</c><c>   1</c></rc>
    <rc><c>Ag</c><c>   1</c></rc>
    <rc><c>Ag</c><c>   1</c></rc>
    <rc><c>Ag</c><c>   1</c></rc>
    <rc><c>Ag</c><c>   1</c></rc>
   </set>
  </array>
  <array name="atomtypes" >
   <dimension dim="1">type</dimension>
   <field type="int">atomspertype</field>
   <field type="string">element</field>
   <field>mass</field>
   <field>valence</field>
   <field type="string">pseudopotential</field>
   <set>
    <rc><c>  25</c><c>Ag</c><c>    107.86800000</c><c>     11.00000000</c><c>  PAW_PBE Ag 02Apr2005                  </c></rc>
   </set>
  </array>
 </atominfo>
 <structure name="initialpos" >
  <crystal>
   <varray name="basis" >
    <v>      29.70000000       0.00000000       0.00000000 </v>
    <v>       0.00000000      29.70000000       0.00000000 </v>
    <v>       0.00000000       0.00000000      29.70000000 </v>
   </varray>
   <i name="volume">  26198.07300000 </i>
   <varray name="rec_basis" >
    <v>       0.03367003       0.00000000       0.00000000 </v>
    <v>       0.00000000       0.03367003       0.00000000 </v>
    <v>       0.00000000       0.00000000       0.03367003 </v>
   </varray>
  </crystal>
  <varray name="positions" >
   <v>       0.46548822       0.50000000       0.50000000 </v>
   <v>       0.53451178       0.50000000       0.43097643 </v>
   <v>       0.53451178       0.43097643       0.50000000 </v>
   <v>       0.53451178       0.56902357       0.50000000 </v>
   <v>       0.53451178       0.50000000       0.56902357 </v>
   <v>       0.39646465       0.50000000       0.43097643 </v>
   <v>       0.46548822       0.56902357       0.43097643 </v>
   <v>       0.46548822       0.43097643       0.43097643 </v>
   <v>       0.39646465       0.43097643       0.50000000 </v>
   <v>       0.46548822       0.43097643       0.56902357 </v>
   <v>       0.46548822       0.50000000       0.36195286 </v>
   <v>       0.46548822       0.36195286       0.50000000 </v>
   <v>       0.60353535       0.50000000       0.50000000 </v>
   <v>       0.60353535       0.43097643       0.43097643 </v>
   <v>       0.53451178       0.43097643       0.36195286 </v>
   <v>       0.53451178       0.36195286       0.43097643 </v>
   <v>       0.39646465       0.56902357       0.50000000 </v>
   <v>       0.39646465       0.50000000       0.56902357 </v>
   <v>       0.46548822       0.56902357       0.56902357 </v>
   <v>       0.46548822       0.50000000       0.63804714 </v>
   <v>       0.60353535       0.56902357       0.43097643 </v>
   <v>       0.60353535       0.50000000       0.36195286 </v>
   <v>       0.53451178       0.56902357       0.36195286 </v>
   <v>       0.46548822       0.63804714       0.50000000 </v>
   <v>       0.53451178       0.63804714       0.43097643 </v>
  </varray>
 </structure>
 <calculation>
  <scstep>
   <time name="dav">    2.11    2.17</time>
   <time name="total">    2.60    2.69</time>
   <energy>
    <i name="alphaZ">     20.29199984 </i>
    <i name="ewald">  67714.13558197 </i>
    <i name="hartreedc"> -92448.62707352 </i>
    <i name="XCdc">   -279.06773996 </i>
    <i name="pawpsdc">  25086.55373316 </i>
    <i name="pawaedc"> -23933.73185576 </i>
    <i name="eentropy">     -1.60103899 </i>
    <i name="bandstr">    361.22099449 </i>
    <i name="atom">  25931.46070940 </i>
    <i name="e_fr_energy">   2450.63531063 </i>
    <i name="e_wo_entrp">   2452.23634962 </i>
    <i name="e_0_energy">   2451.43583013 </i>
   </energy>
  </scstep>
  <scstep>
   <time name="dav">    3.80    3.86</time>
   <time name="total">    3.81    3.87</time>
   <energy>
    <i name="e_fr_energy">    842.73289293 </i>
    <i name="e_wo_entrp">    843.70074133 </i>
    <i name="e_0_energy">    843.21681713 </i>
   </energy>
  </scstep>
  <scstep>
   <time name="dav">    3.00    3.06</time>
   <time name="total">    3.01    3.07</time>
   <energy>
    <i name="e_fr_energy">    -18.50619967 </i>
    <i name="e_wo_entrp">    -18.27957177 </i>
    <i name="e_0_energy">    -18.39288572 </i>
   </energy>
  </scstep>
  <scstep>
   <time name="dav">    2.12    2.17</time>
   <time name="total">    2.13    2.18</time>
   <energy>
    <i name="e_fr_energy">    -53.95065748 </i>
    <i name="e_wo_entrp">    -53.73612875 </i>
    <i name="e_0_energy">    -53.84339311 </i>
   </energy>
  </scstep>
  <scstep>
   <time name="dav">    2.93    2.99</time>
   <time name="total">    4.05    4.15</time>
   <energy>
    <i name="e_fr_energy">    -54.29173287 </i>
    <i name="e_wo_entrp">    -54.07718000 </i>
    <i name="e_0_energy">    -54.18445643 </i>
   </energy>
  </scstep>
  <scstep>
   <time name="dav">    2.93    2.97</time>
   <time name="total">    4.43    4.49</time>
   <energy>
    <i name="e_fr_energy">    -50.61299221 </i>
    <i name="e_wo_entrp">    -50.39128184 </i>
    <i name="e_0_energy">    -50.50213702 </i>
   </energy>
  </scstep>
  <scstep>
   <time name="dav">    2.95    2.98</time>
   <time name="total">    4.41    4.48</time>
   <energy>
    <i name="e_fr_energy">    -50.36074506 </i>
    <i name="e_wo_entrp">    -50.13304580 </i>
    <i name="e_0_energy">    -50.24689543 </i>
   </energy>
  </scstep>
  <scstep>
   <time name="dav">    3.32    3.36</time>
   <time name="total">    4.79    4.87</time>
   <energy>
    <i name="e_fr_energy">    -50.32073859 </i>
    <i name="e_wo_entrp">    -50.09042169 </i>
    <i name="e_0_energy">    -50.20558014 </i>
   </energy>
  </scstep>
  <scstep>
   <time name="dav">    3.32    3.36</time>
   <time name="total">    4.78    4.85</time>
   <energy>
    <i name="e_fr_energy">    -50.31837062 </i>
    <i name="e_wo_entrp">    -50.08845419 </i>
    <i name="e_0_energy">    -50.20341240 </i>
   </energy>
  </scstep>
  <scstep>
   <time name="dav">    3.32    3.36</time>
   <time name="total">    4.81    4.89</time>
   <energy>
    <i name="e_fr_energy">    -50.31822304 </i>
    <i name="e_wo_entrp">    -50.08818673 </i>
    <i name="e_0_energy">    -50.20320488 </i>
   </energy>
  </scstep>
  <scstep>
   <time name="dav">    2.49    2.51</time>
   <time name="total">    3.99    4.05</time>
   <energy>
    <i name="e_fr_energy">    -50.31892896 </i>
    <i name="e_wo_entrp">    -50.08856353 </i>
    <i name="e_0_energy">    -50.20374624 </i>
   </energy>
  </scstep>
  <scstep>
   <time name="dav">    2.92    2.95</time>
   <time name="total">    4.40    4.46</time>
   <energy>
    <i name="e_fr_energy">    -50.32038036 </i>
    <i name="e_wo_entrp">    -50.08982893 </i>
    <i name="e_0_energy">    -50.20510464 </i>
   </energy>
  </scstep>
  <scstep>
   <time name="dav">    1.71    1.73</time>
   <time name="total">    3.19    3.24</time>
   <energy>
    <i name="e_fr_energy">    -50.32276540 </i>
    <i name="e_wo_entrp">    -50.09210855 </i>
    <i name="e_0_energy">    -50.20743697 </i>
   </energy>
  </scstep>
  <scstep>
   <time name="dav">    2.55    2.57</time>
   <time name="total">    4.04    4.09</time>
   <energy>
    <i name="e_fr_energy">    -50.32477767 </i>
    <i name="e_wo_entrp">    -50.09408874 </i>
    <i name="e_0_energy">    -50.20943320 </i>
   </energy>
  </scstep>
  <scstep>
   <time name="dav">    1.70    1.73</time>
   <time name="total">    3.18    3.24</time>
   <energy>
    <i name="e_fr_energy">    -50.32594923 </i>
    <i name="e_wo_entrp">    -50.09525683 </i>
    <i name="e_0_energy">    -50.21060303 </i>
   </energy>
  </scstep>
  <scstep>
   <time name="dav">    2.54    2.58</time>
   <time name="total">    4.02    4.08</time>
   <energy>
    <i name="e_fr_energy">    -50.32674386 </i>
    <i name="e_wo_entrp">    -50.09605606 </i>
    <i name="e_0_energy">    -50.21139996 </i>
   </energy>
  </scstep>
  <scstep>
   <time name="dav">    2.55    2.57</time>
   <time name="total">    4.03    4.09</time>
   <energy>
    <i name="e_fr_energy">    -50.32732015 </i>
    <i name="e_wo_entrp">    -50.09662556 </i>
    <i name="e_0_energy">    -50.21197285 </i>
   </energy>
  </scstep>
  <scstep>
   <time name="dav">    2.11    2.14</time>
   <time name="total">    3.62    3.68</time>
   <energy>
    <i name="e_fr_energy">    -50.32755668 </i>
    <i name="e_wo_entrp">    -50.09685836 </i>
    <i name="e_0_energy">    -50.21220752 </i>
   </energy>
  </scstep>
  <scstep>
   <time name="dav">    2.55    2.58</time>
   <time name="total">    4.04    4.10</time>
   <energy>
    <i name="e_fr_energy">    -50.32770312 </i>
    <i name="e_wo_entrp">    -50.09699909 </i>
    <i name="e_0_energy">    -50.21235111 </i>
   </energy>
  </scstep>
  <scstep>
   <time name="dav">    1.71    1.73</time>
   <time name="total">    2.11    2.15</time>
   <energy>
    <i name="alphaZ">     20.29199984 </i>
    <i name="ewald">  67714.13558197 </i>
    <i name="hartreedc"> -92426.82859357 </i>
    <i name="XCdc">   -286.02161945 </i>
    <i name="pawpsdc">  26731.99811582 </i>
    <i name="pawaedc"> -25618.30045474 </i>
    <i name="eentropy">     -0.23070744 </i>
    <i name="bandstr">  -2116.83281924 </i>
    <i name="atom">  25931.46070940 </i>
    <i name="e_fr_energy">    -50.32778741 </i>
    <i name="e_wo_entrp">    -50.09707997 </i>
    <i name="e_0_energy">    -50.21243369 </i>
   </energy>
  </scstep>
  <structure>
   <crystal>
    <varray name="basis" >
     <v>      29.70000000       0.00000000       0.00000000 </v>
     <v>       0.00000000      29.70000000       0.00000000 </v>
     <v>       0.00000000       0.00000000      29.70000000 </v>
    </varray>
    <i name="volume">  26198.07300000 </i>
    <varray name="rec_basis" >
     <v>       0.03367003       0.00000000       0.00000000 </v>
     <v>       0.00000000       0.03367003       0.00000000 </v>
     <v>       0.00000000       0.00000000       0.03367003 </v>
    </varray>
   </crystal>
   <varray name="positions" >
    <v>       0.46548822       0.50000000       0.50000000 </v>
    <v>       0.53451178       0.50000000       0.43097643 </v>
    <v>       0.53451178       0.43097643       0.50000000 </v>
    <v>       0.53451178       0.56902357       0.50000000 </v>
    <v>       0.53451178       0.50000000       0.56902357 </v>
    <v>       0.39646465       0.50000000       0.43097643 </v>
    <v>       0.46548822       0.56902357       0.43097643 </v>
    <v>       0.46548822       0.43097643       0.43097643 </v>
    <v>       0.39646465       0.43097643       0.50000000 </v>
    <v>       0.46548822       0.43097643       0.56902357 </v>
    <v>       0.46548822       0.50000000       0.36195286 </v>
    <v>       0.46548822       0.36195286       0.50000000 </v>
    <v>       0.60353535       0.50000000       0.50000000 </v>
    <v>       0.60353535       0.43097643       0.43097643 </v>
    <v>       0.53451178       0.43097643       0.36195286 </v>
    <v>       0.53451178       0.36195286       0.43097643 </v>
    <v>       0.39646465       0.56902357       0.50000000 </v>
    <v>       0.39646465       0.50000000       0.56902357 </v>
    <v>       0.46548822       0.56902357       0.56902357 </v>
    <v>       0.46548822       0.50000000       0.63804714 </v>
    <v>       0.60353535       0.56902357       0.43097643 </v>
    <v>       0.60353535       0.50000000       0.36195286 </v>
    <v>       0.53451178       0.56902357       0.36195286 </v>
    <v>       0.46548822       0.63804714       0.50000000 </v>
    <v>       0.53451178       0.63804714       0.43097643 </v>
   </varray>
  </structure>
  <varray name="forces" >
   <v>      -0.22571882      -0.00000000       0.05815812 </v>
   <v>       0.28027895      -0.00000000      -0.26102990 </v>
   <v>       0.05528800      -0.20451079       0.01810838 </v>
   <v>       0.05528800       0.20451079       0.01810838 </v>
   <v>      -0.08135679      -0.00000000      -0.05942857 </v>
   <v>       0.21813976      -0.00000000      -0.04010654 </v>
   <v>      -0.09430602       0.19429269      -0.05713914 </v>
   <v>      -0.09430602      -0.19429269      -0.05713914 </v>
   <v>       0.30016406       0.12221806       0.01662526 </v>
   <v>      -0.05724756       0.10520760      -0.08707678 </v>
   <v>       0.05287478      -0.00000000       0.30428602 </v>
   <v>       0.26431499       0.38722679      -0.20768094 </v>
   <v>      -0.23571505      -0.00000000      -0.03296914 </v>
   <v>      -0.28964721       0.12881624      -0.04056473 </v>
   <v>       0.08143548       0.21823724       0.28002759 </v>
   <v>      -0.25660059       0.38752139       0.29778009 </v>
   <v>       0.30016406      -0.12221806       0.01662526 </v>
   <v>       0.30793796      -0.00000000      -0.08801328 </v>
   <v>      -0.05724756      -0.10520760      -0.08707678 </v>
   <v>       0.01755524      -0.00000000      -0.53985954 </v>
   <v>      -0.28964721      -0.12881624      -0.04056473 </v>
   <v>      -0.34079834      -0.00000000       0.21880334 </v>
   <v>       0.08143548      -0.21823724       0.28002759 </v>
   <v>       0.26431499      -0.38722679      -0.20768094 </v>
   <v>      -0.25660059      -0.38752139       0.29778009 </v>
  </varray>
  <varray name="stress" >
   <v>      -0.51153845       0.00000000       0.14750117 </v>
   <v>       0.00000000      -0.51136255       0.00000000 </v>
   <v>       0.14750117       0.00000000      -0.53846304 </v>
  </varray>
  <energy>
   <i name="e_fr_energy">    -50.32778741 </i>
   <i name="e_wo_entrp">    -50.09707997 </i>
   <i name="e_0_energy">    -50.21243369 </i>
  </energy>
  <time name="totalsc">   79.79   81.22</time>
  <eigenvalues>
   <array>
    <dimension dim="1">band</dimension>
    <dimension dim="2">kpoint</dimension>
    <dimension dim="3">spin</dimension>
    <field>eigene</field>
    <field>occ</field>
    <set>
     <set comment="spin 1">
      <set comment="kpoint 1">
       <r>   -9.9247    1.0000 </r>
       <r>   -9.4654    1.0000 </r>
       <r>   -9.4417    1.0000 </r>
       <r>   -9.4097    1.0000 </r>
       <r>   -9.3970    1.0000 </r>
       <r>   -9.3678    1.0000 </r>
       <r>   -9.3537    1.0000 </r>
       <r>   -9.3369    1.0000 </r>
       <r>   -9.2997    1.0000 </r>
       <r>   -9.1756    1.0000 </r>
       <r>   -9.1349    1.0000 </r>
       <r>   -9.0517    1.0000 </r>
       <r>   -9.0319    1.0000 </r>
       <r>   -9.0154    1.0000 </r>
       <r>   -8.9924    1.0000 </r>
       <r>   -8.8814    1.0000 </r>
       <r>   -8.8669    1.0000 </r>
       <r>   -8.8242    1.0000 </r>
       <r>   -8.7819    1.0000 </r>
       <r>   -8.7610    1.0000 </r>
       <r>   -8.7272    1.0000 </r>
       <r>   -8.6989    1.0000 </r>
       <r>   -8.6872    1.0000 </r>
       <r>   -8.6835    1.0000 </r>
       <r>   -8.6713    1.0000 </r>
       <r>   -8.6120    1.0000 </r>
       <r>   -8.6103    1.0000 </r>
       <r>   -8.5832    1.0000 </r>
       <r>   -8.5405    1.0000 </r>
       <r>   -8.5324    1.0000 </r>
       <r>   -8.5213    1.0000 </r>
       <r>   -8.4718    1.0000 </r>
       <r>   -8.4346    1.0000 </r>
       <r>   -8.4314    1.0000 </r>
       <r>   -8.3724    1.0000 </r>
       <r>   -8.3456    1.0000 </r>
       <r>   -8.3406    1.0000 </r>
       <r>   -8.3230    1.0000 </r>
       <r>   -8.3026    1.0000 </r>
       <r>   -8.2871    1.0000 </r>
       <r>   -8.2706    1.0000 </r>
       <r>   -8.2511    1.0000 </r>
       <r>   -8.2442    1.0000 </r>
       <r>   -8.2392    1.0000 </r>
       <r>   -8.1879    1.0000 </r>
       <r>   -8.1605    1.0000 </r>
       <r>   -8.1438    1.0000 </r>
       <r>   -8.1185    1.0000 </r>
       <r>   -8.0925    1.0000 </r>
       <r>   -8.0880    1.0000 </r>
       <r>   -8.0852    1.0000 </r>
       <r>   -8.0834    1.0000 </r>
       <r>   -8.0664    1.0000 </r>
       <r>   -8.0661    1.0000 </r>
       <r>   -8.0274    1.0000 </r>
       <r>   -8.0176    1.0000 </r>
       <r>   -8.0161    1.0000 </r>
       <r>   -7.9999    1.0000 </r>
       <r>   -7.9822    1.0000 </r>
       <r>   -7.9613    1.0000 </r>
       <r>   -7.9529    1.0000 </r>
       <r>   -7.9470    1.0000 </r>
       <r>   -7.9443    1.0000 </r>
       <r>   -7.9129    1.0000 </r>
       <r>   -7.8960    1.0000 </r>
       <r>   -7.8875    1.0000 </r>
       <r>   -7.8432    1.0000 </r>
       <r>   -7.8144    1.0000 </r>
       <r>   -7.8014    1.0000 </r>
       <r>   -7.7466    1.0000 </r>
       <r>   -7.7396    1.0000 </r>
       <r>   -7.6743    1.0000 </r>
       <r>   -7.6344    1.0000 </r>
       <r>   -7.5869    1.0000 </r>
       <r>   -7.5681    1.0000 </r>
       <r>   -7.4970    1.0000 </r>
       <r>   -7.4955    1.0000 </r>
       <r>   -7.4901    1.0000 </r>
       <r>   -7.4337    1.0000 </r>
       <r>   -7.4320    1.0000 </r>
       <r>   -7.4124    1.0000 </r>
       <r>   -7.4055    1.0000 </r>
       <r>   -7.3791    1.0000 </r>
       <r>   -7.3789    1.0000 </r>
       <r>   -7.3532    1.0000 </r>
       <r>   -7.3396    1.0000 </r>
       <r>   -7.3263    1.0000 </r>
       <r>   -7.3172    1.0000 </r>
       <r>   -7.2979    1.0000 </r>
       <r>   -7.2932    1.0000 </r>
       <r>   -7.2478    1.0000 </r>
       <r>   -7.2197    1.0000 </r>
       <r>   -7.2076    1.0000 </r>
       <r>   -7.2010    1.0000 </r>
       <r>   -7.1924    1.0000 </r>
       <r>   -7.1845    1.0000 </r>
       <r>   -7.1610    1.0000 </r>
       <r>   -7.1522    1.0000 </r>
       <r>   -7.1389    1.0000 </r>
       <r>   -7.1041    1.0000 </r>
       <r>   -7.0994    1.0000 </r>
       <r>   -7.0977    1.0000 </r>
       <r>   -7.0936    1.0000 </r>
       <r>   -7.0819    1.0000 </r>
       <r>   -7.0666    1.0000 </r>
       <r>   -7.0472    1.0000 </r>
       <r>   -7.0424    1.0000 </r>
       <r>   -7.0280    1.0000 </r>
       <r>   -7.0189    1.0000 </r>
       <r>   -7.0128    1.0000 </r>
       <r>   -7.0033    1.0000 </r>
       <r>   -6.9842    1.0000 </r>
       <r>   -6.9781    1.0000 </r>
       <r>   -6.9725    1.0000 </r>
       <r>   -6.9718    1.0000 </r>
       <r>   -6.9574    1.0000 </r>
       <r>   -6.9543    1.0000 </r>
       <r>   -6.9227    1.0000 </r>
       <r>   -6.9184    1.0000 </r>
       <r>   -6.9002    1.0000 </r>
       <r>   -6.8885    1.0000 </r>
       <r>   -6.8697    1.0000 </r>
       <r>   -6.8488    1.0000 </r>
       <r>   -6.8320    1.0000 </r>
       <r>   -6.8016    1.0000 </r>
       <r>   -6.7928    1.0000 </r>
       <r>   -6.7413    1.0000 </r>
       <r>   -6.7110    1.0000 </r>
       <r>   -6.5337    1.0000 </r>
       <r>   -5.9252    1.0000 </r>
       <r>   -5.8345    1.0000 </r>
       <r>   -5.5968    1.0000 </r>
       <r>   -5.4066    1.0000 </r>
       <r>   -4.5489    1.0000 </r>
       <r>   -4.3892    0.9999 </r>
       <r>   -4.1698    0.9882 </r>
       <r>   -4.1142    0.9694 </r>
       <r>   -3.7685    0.2834 </r>
       <r>   -3.7432    0.2262 </r>
       <r>   -3.5855    0.0309 </r>
       <r>   -3.4424    0.0020 </r>
       <r>   -2.9673    0.0000 </r>
       <r>   -2.6936    0.0000 </r>
       <r>   -2.5416    0.0000 </r>
       <r>   -2.4382    0.0000 </r>
       <r>   -2.3052    0.0000 </r>
       <r>   -2.1765    0.0000 </r>
       <r>   -2.1396    0.0000 </r>
       <r>   -2.0441    0.0000 </r>
       <r>   -1.9626    0.0000 </r>
       <r>   -1.7447    0.0000 </r>
       <r>   -1.5868    0.0000 </r>
       <r>   -1.5638    0.0000 </r>
       <r>   -1.2725    0.0000 </r>
       <r>   -1.0175    0.0000 </r>
       <r>   -0.9194    0.0000 </r>
       <r>   -0.8777    0.0000 </r>
       <r>   -0.7636    0.0000 </r>
       <r>   -0.7592    0.0000 </r>
       <r>   -0.5944    0.0000 </r>
       <r>   -0.4168    0.0000 </r>
       <r>   -0.3464    0.0000 </r>
       <r>   -0.2303    0.0000 </r>
       <r>   -0.0443    0.0000 </r>
       <r>    0.0899    0.0000 </r>
       <r>    0.1140    0.0000 </r>
       <r>    0.2022    0.0000 </r>
       <r>    0.2312    0.0000 </r>
       <r>    0.2732    0.0000 </r>
       <r>    0.2925    0.0000 </r>
       <r>    0.3003    0.0000 </r>
       <r>    0.3164    0.0000 </r>
       <r>    0.3661    0.0000 </r>
       <r>    0.3974    0.0000 </r>
       <r>    0.4205    0.0000 </r>
       <r>    0.4248    0.0000 </r>
       <r>    0.4307    0.0000 </r>
       <r>    0.4313    0.0000 </r>
       <r>    0.4465    0.0000 </r>
       <r>    0.4667    0.0000 </r>
       <r>    0.4762    0.0000 </r>
       <r>    0.4803    0.0000 </r>
       <r>    0.4866    0.0000 </r>
       <r>    0.5052    0.0000 </r>
       <r>    0.5373    0.0000 </r>
       <r>    0.5392    0.0000 </r>
       <r>    0.5655    0.0000 </r>
       <r>    0.5979    0.0000 </r>
       <r>    0.6181    0.0000 </r>
       <r>    0.6252    0.0000 </r>
       <r>    0.6359    0.0000 </r>
       <r>    0.6394    0.0000 </r>
      </set>
     </set>
    </set>
   </array>
  </eigenvalues>
  <separator name="orbital magnetization" >
   <v name="MAGDIPOLOUT">      0.00000000      0.00000000      0.00000000</v>
  </separator>
  <dos>
   <i name="efermi">     -3.84952105 </i>
   <total>
    <array>
     <dimension dim="1">gridpoints</dimension>
     <dimension dim="2">spin</dimension>
     <field>energy</field>
     <field>total</field>
     <field>integrated</field>
     <set>
      <set comment="spin 1">
       <r>   -11.9247     0.0000     0.0000 </r>
       <r>   -11.8762     0.0000     0.0000 </r>
       <r>   -11.8276     0.0000     0.0000 </r>
       <r>   -11.7791     0.0000     0.0000 </r>
       <r>   -11.7305     0.0000     0.0000 </r>
       <r>   -11.6820     0.0000     0.0000 </r>
       <r>   -11.6334     0.0000     0.0000 </r>
       <r>   -11.5849     0.0000     0.0000 </r>
       <r>   -11.5364     0.0000     0.0000 </r>
       <r>   -11.4878     0.0000     0.0000 </r>
       <r>   -11.4393     0.0000     0.0000 </r>
       <r>   -11.3907     0.0000     0.0000 </r>
       <r>   -11.3422     0.0000     0.0000 </r>
       <r>   -11.2936     0.0000     0.0000 </r>
       <r>   -11.2451     0.0000     0.0000 </r>
       <r>   -11.1965     0.0000     0.0000 </r>
       <r>   -11.1480     0.0000     0.0000 </r>
       <r>   -11.0994     0.0000     0.0000 </r>
       <r>   -11.0509     0.0000     0.0000 </r>
       <r>   -11.0023     0.0000     0.0000 </r>
       <r>   -10.9538     0.0000     0.0000 </r>
       <r>   -10.9052     0.0000     0.0000 </r>
       <r>   -10.8567     0.0000     0.0000 </r>
       <r>   -10.8081     0.0000     0.0000 </r>
       <r>   -10.7596     0.0000     0.0000 </r>
       <r>   -10.7111     0.0000     0.0000 </r>
       <r>   -10.6625     0.0000     0.0000 </r>
       <r>   -10.6140     0.0000     0.0000 </r>
       <r>   -10.5654     0.0001     0.0000 </r>
       <r>   -10.5169     0.0005     0.0000 </r>
       <r>   -10.4683     0.0019     0.0001 </r>
       <r>   -10.4198     0.0071     0.0005 </r>
       <r>   -10.3712     0.0232     0.0016 </r>
       <r>   -10.3227     0.0680     0.0049 </r>
       <r>   -10.2741     0.1770     0.0135 </r>
       <r>   -10.2256     0.4100     0.0334 </r>
       <r>   -10.1770     0.8450     0.0744 </r>
       <r>   -10.1285     1.5497     0.1496 </r>
       <r>   -10.0799     2.5294     0.2724 </r>
       <r>   -10.0314     3.6744     0.4508 </r>
       <r>    -9.9828     4.7537     0.6816 </r>
       <r>    -9.9343     5.4862     0.9479 </r>
       <r>    -9.8858     5.6794     1.2237 </r>
       <r>    -9.8372     5.3661     1.4842 </r>
       <r>    -9.7887     4.8663     1.7204 </r>
       <r>    -9.7401     4.7484     1.9509 </r>
       <r>    -9.6916     5.7137     2.2283 </r>
       <r>    -9.6430     8.4288     2.6375 </r>
       <r>    -9.5945    13.3067     3.2835 </r>
       <r>    -9.5459    20.2544     4.2668 </r>
       <r>    -9.4974    28.4911     5.6500 </r>
       <r>    -9.4488    36.6167     7.4276 </r>
       <r>    -9.4003    43.0353     9.5168 </r>
       <r>    -9.3517    46.6075    11.7795 </r>
       <r>    -9.3032    47.1794    14.0699 </r>
       <r>    -9.2546    45.6396    16.2856 </r>
       <r>    -9.2061    43.4404    18.3945 </r>
       <r>    -9.1575    41.8825    20.4277 </r>
       <r>    -9.1090    41.6111    22.4478 </r>
       <r>    -9.0605    42.5918    24.5155 </r>
       <r>    -9.0119    44.4818    26.6750 </r>
       <r>    -8.9634    47.0607    28.9597 </r>
       <r>    -8.9148    50.3993    31.4064 </r>
       <r>    -8.8663    54.6877    34.0613 </r>
       <r>    -8.8177    59.9059    36.9696 </r>
       <r>    -8.7692    65.6163    40.1550 </r>
       <r>    -8.7206    71.0443    43.6040 </r>
       <r>    -8.6721    75.4036    47.2647 </r>
       <r>    -8.6235    78.2694    51.0644 </r>
       <r>    -8.5750    79.7936    54.9382 </r>
       <r>    -8.5264    80.6530    58.8536 </r>
       <r>    -8.4779    81.7611    62.8229 </r>
       <r>    -8.4293    83.8888    66.8954 </r>
       <r>    -8.3808    87.3849    71.1377 </r>
       <r>    -8.3322    92.1437    75.6110 </r>
       <r>    -8.2837    97.8062    80.3592 </r>
       <r>    -8.2352   104.0012    85.4082 </r>
       <r>    -8.1866   110.3912    90.7673 </r>
       <r>    -8.1381   116.4729    96.4217 </r>
       <r>    -8.0895   121.3523   102.3130 </r>
       <r>    -8.0410   123.7976   108.3230 </r>
       <r>    -7.9924   122.6598   114.2778 </r>
       <r>    -7.9439   117.4327   119.9788 </r>
       <r>    -7.8953   108.5943   125.2508 </r>
       <r>    -7.8468    97.5272   129.9854 </r>
       <r>    -7.7982    86.0977   134.1652 </r>
       <r>    -7.7497    76.1497   137.8620 </r>
       <r>    -7.7011    69.1346   141.2183 </r>
       <r>    -7.6526    65.9447   144.4197 </r>
       <r>    -7.6040    66.8777   147.6665 </r>
       <r>    -7.5555    71.6451   151.1446 </r>
       <r>    -7.5069    79.4168   155.0001 </r>
       <r>    -7.4584    88.9743   159.3195 </r>
       <r>    -7.4099    99.0262   164.1269 </r>
       <r>    -7.3613   108.6164   169.3999 </r>
       <r>    -7.3128   117.4135   175.1000 </r>
       <r>    -7.2642   125.6706   181.2010 </r>
       <r>    -7.2157   133.8173   187.6974 </r>
       <r>    -7.1671   141.8977   194.5861 </r>
       <r>    -7.1186   149.1877   201.8287 </r>
       <r>    -7.0700   154.2324   209.3162 </r>
       <r>    -7.0215   155.3033   216.8558 </r>
       <r>    -6.9729   151.0538   224.1890 </r>
       <r>    -6.9244   141.0614   231.0371 </r>
       <r>    -6.8758   126.0189   237.1549 </r>
       <r>    -6.8273   107.5267   242.3750 </r>
       <r>    -6.7787    87.6279   246.6291 </r>
       <r>    -6.7302    68.3059   249.9452 </r>
       <r>    -6.6816    51.1064   252.4262 </r>
       <r>    -6.6331    36.9359   254.2193 </r>
       <r>    -6.5846    26.0283   255.4829 </r>
       <r>    -6.5360    18.0659   256.3600 </r>
       <r>    -6.4875    12.4186   256.9629 </r>
       <r>    -6.4389     8.4169   257.3715 </r>
       <r>    -6.3904     5.5473   257.6408 </r>
       <r>    -6.3418     3.5072   257.8111 </r>
       <r>    -6.2933     2.1538   257.9156 </r>
       <r>    -6.2447     1.4276   257.9849 </r>
       <r>    -6.1962     1.3098   258.0485 </r>
       <r>    -6.1476     1.8081   258.1363 </r>
       <r>    -6.0991     2.9305   258.2786 </r>
       <r>    -6.0505     4.6214   258.5029 </r>
       <r>    -6.0020     6.6885   258.8276 </r>
       <r>    -5.9534     8.7826   259.2540 </r>
       <r>    -5.9049    10.4814   259.7628 </r>
       <r>    -5.8563    11.4570   260.3190 </r>
       <r>    -5.8078    11.6323   260.8837 </r>
       <r>    -5.7593    11.2146   261.4282 </r>
       <r>    -5.7107    10.5736   261.9415 </r>
       <r>    -5.6622    10.0408   262.4289 </r>
       <r>    -5.6136     9.7613   262.9028 </r>
       <r>    -5.5651     9.6749   263.3725 </r>
       <r>    -5.5165     9.5985   263.8385 </r>
       <r>    -5.4680     9.3289   264.2914 </r>
       <r>    -5.4194     8.7152   264.7145 </r>
       <r>    -5.3709     7.7003   265.0883 </r>
       <r>    -5.3223     6.3441   265.3963 </r>
       <r>    -5.2738     4.8144   265.6300 </r>
       <r>    -5.2252     3.3318   265.7918 </r>
       <r>    -5.1767     2.0867   265.8931 </r>
       <r>    -5.1281     1.1766   265.9502 </r>
       <r>    -5.0796     0.5969   265.9792 </r>
       <r>    -5.0311     0.2783   265.9927 </r>
       <r>    -4.9825     0.1399   265.9995 </r>
       <r>    -4.9340     0.1294   266.0058 </r>
       <r>    -4.8854     0.2430   266.0176 </r>
       <r>    -4.8369     0.5286   266.0432 </r>
       <r>    -4.7883     1.0713   266.0952 </r>
       <r>    -4.7398     1.9592   266.1903 </r>
       <r>    -4.6912     3.2304   266.3472 </r>
       <r>    -4.6427     4.8223   266.5813 </r>
       <r>    -4.5941     6.5588   266.8997 </r>
       <r>    -4.5456     8.1951   267.2975 </r>
       <r>    -4.4970     9.5097   267.7592 </r>
       <r>    -4.4485    10.3980   268.2640 </r>
       <r>    -4.3999    10.9184   268.7940 </r>
       <r>    -4.3514    11.2612   269.3407 </r>
       <r>    -4.3028    11.6399   269.9058 </r>
       <r>    -4.2543    12.1468   270.4955 </r>
       <r>    -4.2058    12.6578   271.1100 </r>
       <r>    -4.1572    12.8750   271.7351 </r>
       <r>    -4.1087    12.5206   272.3429 </r>
       <r>    -4.0601    11.5699   272.9046 </r>
       <r>    -4.0116    10.3552   273.4073 </r>
       <r>    -3.9630     9.4425   273.8657 </r>
       <r>    -3.9145     9.3417   274.3192 </r>
       <r>    -3.8659    10.2263   274.8157 </r>
       <r>    -3.8174    11.8357   275.3903 </r>
       <r>    -3.7688    13.6135   276.0512 </r>
       <r>    -3.7203    14.9900   276.7789 </r>
       <r>    -3.6717    15.6289   277.5376 </r>
       <r>    -3.6232    15.4996   278.2901 </r>
       <r>    -3.5746    14.7679   279.0070 </r>
       <r>    -3.5261    13.6208   279.6683 </r>
       <r>    -3.4775    12.1632   280.2587 </r>
       <r>    -3.4290    10.4370   280.7654 </r>
       <r>    -3.3805     8.5116   281.1786 </r>
       <r>    -3.3319     6.5522   281.4967 </r>
       <r>    -3.2834     4.8115   281.7303 </r>
       <r>    -3.2348     3.5552   281.9029 </r>
       <r>    -3.1863     2.9690   282.0470 </r>
       <r>    -3.1377     3.0910   282.1971 </r>
       <r>    -3.0892     3.7901   282.3811 </r>
       <r>    -3.0406     4.7981   282.6140 </r>
       <r>    -2.9921     5.8027   282.8957 </r>
       <r>    -2.9435     6.5768   283.2150 </r>
       <r>    -2.8950     7.0838   283.5589 </r>
       <r>    -2.8464     7.4821   283.9222 </r>
       <r>    -2.7979     8.0160   284.3113 </r>
       <r>    -2.7493     8.8627   284.7416 </r>
       <r>    -2.7008    10.0398   285.2290 </r>
       <r>    -2.6522    11.4205   285.7834 </r>
       <r>    -2.6037    12.8184   286.4057 </r>
       <r>    -2.5552    14.0710   287.0888 </r>
       <r>    -2.5066    15.0878   287.8213 </r>
       <r>    -2.4581    15.8703   288.5917 </r>
       <r>    -2.4095    16.5142   289.3934 </r>
       <r>    -2.3610    17.1814   290.2276 </r>
       <r>    -2.3124    18.0272   291.1027 </r>
       <r>    -2.2639    19.1033   292.0301 </r>
       <r>    -2.2153    20.2887   293.0151 </r>
       <r>    -2.1668    21.3012   294.0492 </r>
       <r>    -2.1182    21.7952   295.1073 </r>
       <r>    -2.0697    21.5052   296.1513 </r>
       <r>    -2.0211    20.3670   297.1401 </r>
       <r>    -1.9726    18.5682   298.0415 </r>
       <r>    -1.9240    16.5074   298.8429 </r>
       <r>    -1.8755    14.6742   299.5553 </r>
       <r>    -1.8269    13.4862   300.2100 </r>
       <r>    -1.7784    13.1414   300.8480 </r>
       <r>    -1.7299    13.5439   301.5055 </r>
       <r>    -1.6813    14.3317   302.2012 </r>
       <r>    -1.6328    15.0009   302.9295 </r>
       <r>    -1.5842    15.0936   303.6622 </r>
       <r>    -1.5357    14.3890   304.3608 </r>
       <r>    -1.4871    13.0049   304.9921 </r>
       <r>    -1.4386    11.3353   305.5424 </r>
       <r>    -1.3900     9.8413   306.0202 </r>
       <r>    -1.3415     8.8257   306.4487 </r>
       <r>    -1.2929     8.3507   306.8541 </r>
       <r>    -1.2444     8.3394   307.2589 </r>
       <r>    -1.1958     8.7544   307.6839 </r>
       <r>    -1.1473     9.6880   308.1542 </r>
       <r>    -1.0987    11.2883   308.7022 </r>
       <r>    -1.0502    13.5918   309.3621 </r>
       <r>    -1.0016    16.4008   310.1583 </r>
       <r>    -0.9531    19.2953   311.0950 </r>
       <r>    -0.9046    21.7615   312.1515 </r>
       <r>    -0.8560    23.3553   313.2853 </r>
       <r>    -0.8075    23.8265   314.4420 </r>
       <r>    -0.7589    23.1772   315.5672 </r>
       <r>    -0.7104    21.6562   316.6186 </r>
       <r>    -0.6618    19.6946   317.5747 </r>
       <r>    -0.6133    17.7917   318.4384 </r>
       <r>    -0.5647    16.3761   319.2334 </r>
       <r>    -0.5162    15.6806   319.9947 </r>
       <r>    -0.4676    15.6757   320.7557 </r>
       <r>    -0.4191    16.0916   321.5369 </r>
       <r>    -0.3705    16.5350   322.3396 </r>
       <r>    -0.3220    16.6631   323.1485 </r>
       <r>    -0.2734    16.3428   323.9419 </r>
       <r>    -0.2249    15.7187   324.7050 </r>
       <r>    -0.1763    15.1643   325.4412 </r>
       <r>    -0.1278    15.1535   326.1769 </r>
       <r>    -0.0793    16.1231   326.9596 </r>
       <r>    -0.0307    18.3911   327.8524 </r>
       <r>     0.0178    22.1507   328.9278 </r>
       <r>     0.0664    27.5169   330.2636 </r>
       <r>     0.1149    34.5730   331.9420 </r>
       <r>     0.1635    43.3720   334.0476 </r>
       <r>     0.2120    53.8678   336.6628 </r>
       <r>     0.2606    65.7794   339.8562 </r>
       <r>     0.3091    78.4241   343.6634 </r>
       <r>     0.3577    90.5992   348.0617 </r>
       <r>     0.4062   100.6292   352.9470 </r>
       <r>     0.4548   106.6653   358.1253 </r>
       <r>     0.5033   107.1957   363.3293 </r>
       <r>     0.5519   101.5712   368.2603 </r>
       <r>     0.6004    90.3003   372.6441 </r>
       <r>     0.6490    74.9743   376.2839 </r>
       <r>     0.6975    57.8549   379.0926 </r>
       <r>     0.7460    41.2789   381.0965 </r>
       <r>     0.7946    27.0861   382.4115 </r>
       <r>     0.8431    16.2592   383.2008 </r>
       <r>     0.8917     8.8848   383.6321 </r>
       <r>     0.9402     4.4006   383.8458 </r>
       <r>     0.9888     1.9683   383.9413 </r>
       <r>     1.0373     0.7927   383.9798 </r>
       <r>     1.0859     0.2867   383.9937 </r>
       <r>     1.1344     0.0930   383.9983 </r>
       <r>     1.1830     0.0270   383.9996 </r>
       <r>     1.2315     0.0070   383.9999 </r>
       <r>     1.2801     0.0016   384.0000 </r>
       <r>     1.3286     0.0003   384.0000 </r>
       <r>     1.3772     0.0001   384.0000 </r>
       <r>     1.4257     0.0000   384.0000 </r>
       <r>     1.4743     0.0000   384.0000 </r>
       <r>     1.5228     0.0000   384.0000 </r>
       <r>     1.5713     0.0000   384.0000 </r>
       <r>     1.6199     0.0000   384.0000 </r>
       <r>     1.6684     0.0000   384.0000 </r>
       <r>     1.7170     0.0000   384.0000 </r>
       <r>     1.7655     0.0000   384.0000 </r>
       <r>     1.8141     0.0000   384.0000 </r>
       <r>     1.8626     0.0000   384.0000 </r>
       <r>     1.9112     0.0000   384.0000 </r>
       <r>     1.9597     0.0000   384.0000 </r>
       <r>     2.0083     0.0000   384.0000 </r>
       <r>     2.0568     0.0000   384.0000 </r>
       <r>     2.1054     0.0000   384.0000 </r>
       <r>     2.1539     0.0000   384.0000 </r>
       <r>     2.2025     0.0000   384.0000 </r>
       <r>     2.2510     0.0000   384.0000 </r>
       <r>     2.2996     0.0000   384.0000 </r>
       <r>     2.3481     0.0000   384.0000 </r>
       <r>     2.3966     0.0000   384.0000 </r>
       <r>     2.4452     0.0000   384.0000 </r>
       <r>     2.4937     0.0000   384.0000 </r>
       <r>     2.5423     0.0000   384.0000 </r>
       <r>     2.5908     0.0000   384.0000 </r>
       <r>     2.6394     0.0000   384.0000 </r>
      </set>
     </set>
    </array>
   </total>
  </dos>
 </calculation>
 <structure name="finalpos" >
  <crystal>
   <varray name="basis" >
    <v>      29.70000000       0.00000000       0.00000000 </v>
    <v>       0.00000000      29.70000000       0.00000000 </v>
    <v>       0.00000000       0.00000000      29.70000000 </v>
   </varray>
   <i name="volume">  26198.07300000 </i>
   <varray name="rec_basis" >
    <v>       0.03367003       0.00000000       0.00000000 </v>
    <v>       0.00000000       0.03367003       0.00000000 </v>
    <v>       0.00000000       0.00000000       0.03367003 </v>
   </varray>
  </crystal>
  <varray name="positions" >
   <v>       0.46548822       0.50000000       0.50000000 </v>
   <v>       0.53451178       0.50000000       0.43097643 </v>
   <v>       0.53451178       0.43097643       0.50000000 </v>
   <v>       0.53451178       0.56902357       0.50000000 </v>
   <v>       0.53451178       0.50000000       0.56902357 </v>
   <v>       0.39646465       0.50000000       0.43097643 </v>
   <v>       0.46548822       0.56902357       0.43097643 </v>
   <v>       0.46548822       0.43097643       0.43097643 </v>
   <v>       0.39646465       0.43097643       0.50000000 </v>
   <v>       0.46548822       0.43097643       0.56902357 </v>
   <v>       0.46548822       0.50000000       0.36195286 </v>
   <v>       0.46548822       0.36195286       0.50000000 </v>
   <v>       0.60353535       0.50000000       0.50000000 </v>
   <v>       0.60353535       0.43097643       0.43097643 </v>
   <v>       0.53451178       0.43097643       0.36195286 </v>
   <v>       0.53451178       0.36195286       0.43097643 </v>
   <v>       0.39646465       0.56902357       0.50000000 </v>
   <v>       0.39646465       0.50000000       0.56902357 </v>
   <v>       0.46548822       0.56902357       0.56902357 </v>
   <v>       0.46548822       0.50000000       0.63804714 </v>
   <v>       0.60353535       0.56902357       0.43097643 </v>
   <v>       0.60353535       0.50000000       0.36195286 </v>
   <v>       0.53451178       0.56902357       0.36195286 </v>
   <v>       0.46548822       0.63804714       0.50000000 </v>
   <v>       0.53451178       0.63804714       0.43097643 </v>
  </varray>
 </structure>
</modeling>
