17
Lattice="25.1 0.0 0.0 0.0 25.1 0.0 0.0 0.0 25.1" Properties=species:S:1:pos:R:3:forces:R:3 energy=-38.9952754 stress="0.0003429849823458365 -7.729606610921782e-05 5.011280214531514e-05 -7.729606610921782e-05 0.0002486713167747155 3.160657779085226e-05 5.011280214531514e-05 3.160657779085226e-05 0.0002511213462839715" free_energy=-39.08454706 pbc="T T T"
Ag     12.55000000     12.55000000     12.55000000     -0.61939498      0.68094016      0.38779789
Ag     14.60000000     12.55000000     10.50000000     -0.17342107      1.35150294     -0.04407060
Ag     14.60000000     10.50000000     12.55000000     -0.27922126      0.14467949      1.64527159
Ag     14.60000000     14.60000000     12.55000000      0.00934412     -0.55972042     -0.26288351
Ag     14.60000000     12.55000000     14.60000000      1.14844910      0.15713138     -0.39544370
Ag     16.65000000     12.55000000     12.55000000     -0.24277266      0.15667087      1.21237847
Ag     10.50000000     12.55000000     10.50000000      0.44098785      0.26895502      0.64541415
Ag     12.55000000     14.60000000     10.50000000     -0.26407870     -0.44747663      0.61320565
Ag     12.55000000     10.50000000     10.50000000     -1.22949686      0.22826563     -0.06920860
Ag     12.55000000     12.55000000      8.45000000     -0.08153117      0.04027257      0.44270936
Ag     10.50000000     10.50000000     12.55000000      0.55066449      0.07680889     -0.31044305
Ag     12.55000000     10.50000000     14.60000000     -0.26800475     -0.48949279     -0.90113746
Ag     12.55000000      8.45000000     12.55000000     -0.12987248      0.40511845      0.32792905
O      16.86670084     12.36965922     14.73059315     -0.74785695      0.22737546     -1.43953729
O      10.93476712     14.17390999     12.26501289      0.81755041     -0.84120542     -1.21185850
Cl     14.98911296     10.15951574     10.27601356      1.25798205     -1.28526610     -1.66318201
Cl     13.81234482     11.18013359     16.43715128     -0.18932714     -0.11455951      1.02305856
17
Lattice="25.1 0.0 0.0 0.0 25.1 0.0 0.0 0.0 25.1" Properties=species:S:1:pos:R:3:forces:R:3 energy=-38.99126178 stress="0.00031506360375421603 -7.076869586536911e-05 3.1177505245993416e-05 -7.076869586536911e-05 0.0002478359844008529 2.1490458388294068e-05 3.1177505245993416e-05 2.1490458388294068e-05 0.00019071950372576553" free_energy=-39.0769823 pbc="T T T"
Ag     12.55254232     12.54449502     12.55605526      0.01349551     -0.62442050      0.71887930
Ag     14.60813145     12.54443240     10.49862863      0.44666997     -0.16727422      1.42833052
Ag     14.60298289     10.49770948     12.53643579      0.44611278     -0.32486270      0.17426302
Ag     14.59882342     14.61585117     12.53465781      0.76723667      0.00631108     -0.61154143
Ag     14.61815784     12.56109514     14.60457892      0.76762735      1.03790450      0.11766522
Ag     16.64439983     12.53658573     12.55911469      0.86155104     -0.22636471      0.22707316
Ag     10.50863738     12.54330384     10.49408747      0.76370212      0.41081028      0.26695975
Ag     12.54806856     14.60022101     10.49574526      0.76499131     -0.25490645     -0.43237412
Ag     12.54693829     10.52173287     10.49191130      0.43904823     -1.26629058      0.17411742
Ag     12.55210122     12.55855012      8.46486140      0.86164322     -0.07735495      0.03781090
Ag     10.50386600     10.46928452     12.56946193      0.76674855      0.54551165      0.14343549
Ag     12.53040170     10.50184841     14.60959246      0.76763425     -0.35594205     -0.54720210
Ag     12.54330197      8.44948291     12.54409573      0.86165519     -0.10441339      0.40122632
O      16.85846247     12.42358676     14.71151491      1.00000000     -0.68657322      0.17454539
O      10.96137748     14.19925805     12.26161529      1.00000000      0.82335858     -0.86589331
Cl     14.97792821     10.15379834     10.28123330      1.00000000      1.30834628     -1.37648298
Cl     13.78982174     11.16652676     16.41400006      1.00000000     -0.04383959     -0.03081253
17
Lattice="25.1 0.0 0.0 0.0 25.1 0.0 0.0 0.0 25.1" Properties=species:S:1:pos:R:3:forces:R:3 energy=-39.03610037 stress="0.000276078482395491 -6.326557801685282e-05 1.2987893924959215e-05 -6.326557801685282e-05 0.00024677135770623276 9.630785894438637e-06 1.2987893924959215e-05 9.630785894438637e-06 0.00012293042317747444" free_energy=-39.11519889 pbc="T T T"
Ag     12.55438932     12.53998986     12.56242201      0.00138039     -0.60820865      0.73825466
Ag     14.61611410     12.54079042     10.49757446      0.00467646     -0.15565633      1.45492611
Ag     14.60541781     10.49575362     12.52556441      0.00772891     -0.35497674      0.19504080
Ag     14.59803032     14.63094082     12.51924812      0.00536674      0.00399086     -0.65663285
Ag     14.63760725     12.57216607     14.60817788      0.01030128      0.85581436      0.07068597
Ag     16.63897974     12.52362172     12.56956976      0.01037587     -0.21178774      0.29064441
Ag     10.51788192     12.53701393     10.48829030      0.00963338      0.37114309      0.25760744
Ag     12.54576026     14.59981871     10.49190700      0.00928021     -0.22643722     -0.40839981
Ag     12.54230602     10.54332764     10.48413715      0.00587714     -1.26035531      0.10866048
Ag     12.55383552     12.56748675      8.47955315      0.00463583     -0.06832519      0.03594244
Ag     10.50816883     10.43807751     12.58883006      0.00671663      0.52414672      0.20548801
Ag     12.51063391     10.50300005     14.61778041      0.01015829     -0.44955845     -0.60516306
Ag     12.53630732      8.44929090     12.53856857      0.00505342     -0.07133941      0.39148519
O      16.84260383     12.47804464     14.68460787      0.11220248     -0.55771827      0.12417116
O      10.99484921     14.21832694     12.25068394      0.02059700      0.79858751     -0.85926124
Cl     14.96997386     10.14410723     10.28093242      0.01572568      1.30247470     -1.40694715
Cl     13.76828556     11.15312016     16.39365708      0.05897804      0.10820608      0.06349743
17
Lattice="25.1 0.0 0.0 0.0 25.1 0.0 0.0 0.0 25.1" Properties=species:S:1:pos:R:3:forces:R:3 energy=-39.33073846 stress="0.00011376937950135891 -3.61564070077835e-05 -1.1580758175547083e-05 -3.61564070077835e-05 0.0002467909810109245 -2.0792645185002066e-05 -1.1580758175547083e-05 -2.0792645185002066e-05 -7.713100315887471e-05" free_energy=-39.41599127 pbc="T T T"
Ag     12.55475316     12.53645792     12.57593378      0.00953492     -0.44229534      0.61307861
Ag     14.63102921     12.54253916     10.49661002      0.01264098     -0.09463889      1.23769283
Ag     14.60819752     10.49348803     12.51651282      0.02403687     -0.36859099      0.17992446
Ag     14.59618626     14.65737308     12.48749851      0.01341209      0.00643836     -0.70015045
Ag     14.68084828     12.59406339     14.61008835      0.00987499     -0.08192730     -0.09314713
Ag     16.62744935     12.49937708     12.59786345      0.00858399     -0.20482222      0.32670121
Ag     10.53926565     12.52564069     10.48086235      0.02603821      0.22972691      0.22320218
Ag     12.53987774     14.59580232     10.48990441      0.02499334     -0.02662517     -0.28804373
Ag     12.52691919     10.58515378     10.46953844      0.01798388     -1.00110428     -0.07899416
Ag     12.55609355     12.58641319      8.50928285      0.01257258     -0.03783324      0.01280267
Ag     10.51871270     10.37683479     12.62601659      0.02398058      0.40842408      0.31356106
Ag     12.46994066     10.50336951     14.62587499      0.00798770     -0.50225109     -0.63077512
Ag     12.52162200      8.45156926     12.52902802      0.01378465      0.02734916      0.35187325
O      16.76865596     12.58596394     14.58487534      0.16959755      0.31145225      0.11731892
O      11.10143238     14.21736127     12.18244310      0.04739729      0.45860789     -0.67556009
Cl     14.97415169     10.09986035     10.24571468      0.08702673      1.00425362     -1.14531327
Cl     13.73275622     11.12839362     16.37265093      0.02982560      0.31383624      0.23582876
17
Lattice="25.1 0.0 0.0 0.0 25.1 0.0 0.0 0.0 25.1" Properties=species:S:1:pos:R:3:forces:R:3 energy=-39.38313549 stress="-2.4781799637155213e-05 -1.915819367322527e-05 3.838390799217434e-06 -1.915819367322527e-05 0.0002342555403240097 -3.9488343031999384e-05 3.838390799217434e-06 -3.9488343031999384e-05 -0.00024064669587269517" free_energy=-39.47347474 pbc="T T T"
Ag     12.55356458     12.53716964     12.58298022      0.01192510     -0.27451741      0.43363524
Ag     14.63806182     12.54754524     10.49659286      0.00238905     -0.05488041      1.03740613
Ag     14.60863272     10.49302995     12.51790378      0.00259733     -0.36978701      0.13671903
Ag     14.59510271     14.66854930     12.47113833      0.00223201      0.01317771     -0.69643593
Ag     14.70327413     12.60492095     14.60851947      0.01347113     -0.93635960     -0.22193704
Ag     16.62098691     12.48835277     12.61405281      0.01448925     -0.17123380      0.21457067
Ag     10.55117019     12.52042997     10.47943843      0.00366766      0.11603816      0.17928017
Ag     12.53681930     14.59207826     10.49166283      0.00480978      0.23033670     -0.16440892
Ag     12.51647126     10.60519792     10.46254291      0.00294470     -0.78011270     -0.20751199
Ag     12.55667217     12.59631285      8.52422221      0.00164716     -0.00979824     -0.00048662
Ag     10.52474651     10.34751101     12.64337292      0.00209446      0.30919491      0.36570730
Ag     12.44875246     10.50223648     14.62517819      0.00900826     -0.41412315     -0.58448387
Ag     12.51420528      8.45379608     12.52510017      0.00156476      0.09626334      0.31870042
O      16.72050076     12.63822150     14.52304979      0.05271008      1.10868156      0.26334430
O      11.16934857     14.20012412     12.12891216      0.03303106      0.04739166     -0.47698536
Cl     14.98526706     10.06661266     10.21211583      0.02413403      0.76447971     -0.88727041
Cl     13.72013245     11.11830399     16.37405393      0.00675335      0.32524857      0.29015690
17
Lattice="25.1 0.0 0.0 0.0 25.1 0.0 0.0 0.0 25.1" Properties=species:S:1:pos:R:3:forces:R:3 energy=-39.13421958 stress="-0.00029609887189785666 7.677749032349381e-06 0.00010631328518259702 7.677749032349381e-06 0.0001515074473367325 -5.395267842370454e-05 0.00010631328518259702 -5.395267842370454e-05 -0.0004944232550369268" free_energy=-39.23693287 pbc="T T T"
Ag     12.54894185     12.54160038     12.59921245      0.00346522      0.22300920     -0.16774892
Ag     14.65261203     12.56290671     10.49783419      0.00966851      0.02047974      0.60022540
Ag     14.60753685     10.49251954     12.52841786      0.01023477     -0.36405787      0.04671604
Ag     14.59211046     14.68638814     12.43670853      0.00901354      0.06537387     -0.66795555
Ag     14.74035233     12.62588289     14.60413494      0.00810145     -2.34364499     -0.50990048
Ag     16.60638634     12.46817007     12.63484429      0.00807398     -0.01673704     -0.17258274
Ag     10.57603891     12.51032245     10.48015861      0.01519282     -0.22384241      0.06426971
Ag     12.53285505     14.58269582     10.49759285      0.01800504      1.28532057      0.37657831
Ag     12.49111698     10.64353637     10.44857607      0.01249303     -0.25178944     -0.53414506
Ag     12.55726929     12.61629887      8.55455589      0.00643193      0.06716276     -0.03103949
Ag     10.53786056     10.29207313     12.67410319      0.01064491      0.03337644      0.46873107
Ag     12.40507979     10.49674035     14.61461990      0.02087866     -0.00065867     -0.38862807
Ag     12.50036255      8.46036703     12.51825941      0.00614915      0.25537038      0.22343398
O      16.67035582     12.74662938     14.46028225      0.02074279      2.29400926      0.77875435
O      11.31392667     14.14581484     12.00879591      0.04972670     -1.46815431     -0.02393174
Cl     15.01828862      9.98669571     10.12827941      0.05026595      0.27601828     -0.35474791
Cl     13.70515712     11.10573354     16.39950540      0.03403473      0.14876421      0.29197109
17
Lattice="25.1 0.0 0.0 0.0 25.1 0.0 0.0 0.0 25.1" Properties=species:S:1:pos:R:3:forces:R:3 energy=-39.03440055 stress="-0.0003095126427150022 3.565899617950536e-05 0.00017582025997816886 3.565899617950536e-05 3.888465802783483e-05 3.0226299255208807e-05 0.00017582025997816886 3.0226299255208807e-05 -0.0003273416758123251" free_energy=-39.14410724 pbc="T T T"
Ag     12.54466411     12.54599071     12.62053448      0.00912015      0.74032496     -0.81858439
Ag     14.66811303     12.58207990     10.50082857      0.00973479      0.06371265      0.21393846
Ag     14.60500446     10.49200905     12.54260091      0.00416903     -0.35758588      0.02206663
Ag     14.58745222     14.69749543     12.40021810      0.01462347      0.17662503     -0.65272005
Ag     14.75827050     12.64374679     14.60149394      0.02021755     -1.57195103     -0.56169384
Ag     16.59103277     12.44821488     12.62932923      0.01913621      0.07585108      0.09474124
Ag     10.59944053     12.49972433     10.48425518      0.00574128     -0.64517603      0.03541804
Ag     12.53853541     14.57527562     10.49840362      0.01034011      2.42693741      1.18084924
Ag     12.46496804     10.67794255     10.43461962      0.00319367      0.28529959     -0.91579808
Ag     12.55743741     12.63581578      8.58427415      0.01075719      0.14270654     -0.05742719
Ag     10.55058879     10.24168739     12.69900561      0.00349456     -0.31415360      0.56237668
Ag     12.36357988     10.48943996     14.59685774      0.00719384      0.52083111     -0.17092725
Ag     12.48849053      8.46847877     12.51237396      0.01125108      0.41496846      0.09094072
O      16.72841439     12.87869165     14.53344840      0.03865532      1.30172970      0.52455688
O      11.41009235     14.08372289     11.92532067      0.03124908     -3.07521373      0.22453772
Cl     15.05162373      9.90411974     10.04381362      0.06043356     -0.08718703      0.01722682
Cl     13.69637996     11.10074495     16.44061733      0.03183876     -0.09771923      0.21049835
17
Lattice="25.1 0.0 0.0 0.0 25.1 0.0 0.0 0.0 25.1" Properties=species:S:1:pos:R:3:forces:R:3 energy=-39.07191137 stress="-7.766764811351816e-05 0.00011628330958104568 0.00010881531894588985 0.00011628330958104568 4.493185025010197e-05 5.436905573900133e-05 0.00010881531894588985 5.436905573900133e-05 4.8602107276486366e-05" free_energy=-39.1863457 pbc="T T T"
Ag     12.54456330     12.54452653     12.65032048      0.01474281      0.84256918     -0.77846506
Ag     14.68438071     12.60333935     10.50553894      0.01838547      0.01295392     -0.07170902
Ag     14.60075250     10.49139397     12.55637362      0.00954442     -0.38197746      0.03824598
Ag     14.58168090     14.70246308     12.36182063      0.00653508      0.27958556     -0.58757126
Ag     14.76227492     12.65712777     14.60248306      0.00868580     -0.16345228     -0.39076734
Ag     16.57721286     12.42903734     12.60783059      0.00790397      0.21065250      0.56322447
Ag     10.61756342     12.48842116     10.49041383      0.01599519     -0.93592897      0.30149965
Ag     12.56259675     14.57607026     10.48362459      0.00969756      1.50688398      0.93031098
Ag     12.44224111     10.70561892     10.42158462      0.00891328      0.77110888     -1.27425822
Ag     12.55824793     12.65402866      8.61103381      0.00509641      0.22237198     -0.05041269
Ag     10.56010344     10.19704550     12.71827519      0.00868696     -0.69591701      0.61962991
Ag     12.32921398     10.48266050     14.57750680      0.01758243      0.94171492     -0.05035094
Ag     12.47947786      8.47682980     12.50678528      0.00257978      0.55239692     -0.04719124
O      16.84716833     13.03075215     14.67417876      0.04468602     -0.34957885     -0.13253069
O      11.37018384     14.03680467     11.94269859      0.04933837     -2.26392100      0.50902875
Cl     15.07943732      9.82499221      9.96672467      0.06030313     -0.31299850      0.25909059
Cl     13.68552608     11.09997883     16.48044102      0.01086381     -0.23646377      0.16222612
17
Lattice="25.1 0.0 0.0 0.0 25.1 0.0 0.0 0.0 25.1" Properties=species:S:1:pos:R:3:forces:R:3 energy=-38.67517764 stress="0.00021665632583421106 0.0001738481802717365 -1.8836874541915673e-08 0.0001738481802717365 0.0001991407600497175 4.649818193127888e-06 -1.8836874541915673e-08 4.649818193127888e-06 0.000400303712882639" free_energy=-38.78069706 pbc="T T T"
Ag     12.55320705     12.53191879     12.70520765      0.01700479      0.00772000      0.36708515
Ag     14.70823563     12.63458363     10.51556562      0.00828471     -0.13126800     -0.32213610
Ag     14.58987966     10.49052114     12.56977109      0.01607507     -0.33453460      0.08931199
Ag     14.57338715     14.70169227     12.30207639      0.01859167      0.37665200     -0.42631600
Ag     14.76634450     12.67071468     14.61393284      0.02396023      0.60578012     -0.20436051
Ag     16.56600991     12.40836810     12.57763582      0.02022746      0.30096110      0.76250999
Ag     10.62966235     12.47406391     10.50409984      0.01201263     -1.00034520      1.03732316
Ag     12.62223059     14.58850589     10.44569238      0.03286579     -0.30309529      0.22339024
Ag     12.42308913     10.72761808     10.40667630      0.01826788      1.21563525     -1.58016708
Ag     12.56361291     12.67917225      8.63911677      0.01846786      0.24714302     -0.10573180
Ag     10.56175232     10.14165455     12.73645014      0.01862085     -1.10899067      0.71532848
Ag     12.29811911     10.47464417     14.55382131      0.00753717      1.25786381     -0.01103278
Ag     12.47391553      8.48762396     12.49863701      0.00826003      0.71184572     -0.23300116
O      16.93330708     13.22320672     14.79707082      0.06800091     -1.22930091     -0.57778696
O      11.11314930     14.02635706     12.09564358      0.04211490      0.19181296     -0.31031817
Cl     15.09574736      9.73059775      9.88254177      0.07536161     -0.48243205      0.44588387
Cl     13.65768704     11.10456783     16.51592699      0.00498315     -0.32544726      0.13001768
17
Lattice="25.1 0.0 0.0 0.0 25.1 0.0 0.0 0.0 25.1" Properties=species:S:1:pos:R:3:forces:R:3 energy=-38.44437985 stress="0.000272204365198037 0.00012421156158216239 -7.694114893428359e-05 0.00012421156158216239 0.00024199463714955739 -1.4944744349124383e-05 -7.694114893428359e-05 -1.4944744349124383e-05 0.00040822900640843007" free_energy=-38.54055694 pbc="T T T"
Ag     12.56130847     12.52363430     12.75774606      0.00858906     -0.49270496      0.82873258
Ag     14.72784862     12.66234669     10.52641748      0.01611248     -0.20574122     -0.56388948
Ag     14.57417277     10.49079641     12.57281094      0.00534354     -0.27579667      0.12765030
Ag     14.56731023     14.69502811     12.24441921      0.00874118      0.49696005     -0.14259567
Ag     14.77717115     12.67790414     14.63379662      0.01010613      0.32062568     -0.27047564
Ag     16.56587249     12.40138437     12.56095021      0.00820370      0.16242056      0.66959563
Ag     10.62183476     12.47626393     10.53042075      0.00952361     -0.76023621      1.27909752
Ag     12.68241736     14.60263079     10.41723650      0.01591923     -0.74548056      0.25036109
Ag     12.42760403     10.72163560     10.40036798      0.00918826      1.21929405     -1.39162490
Ag     12.57522890     12.70258095      8.64835470      0.00564206      0.14740182     -0.25814541
Ag     10.54109299     10.10064659     12.73940660      0.00947742     -1.10402951      0.74793899
Ag     12.29455660     10.46852716     14.54698719      0.01783238      1.10547782     -0.12407518
Ag     12.48057417      8.49256604     12.49079174      0.01044842      0.71029284     -0.27447760
O      16.87173270     13.33191947     14.78129973      0.02696536     -0.80233207     -0.49399507
O      10.86294762     13.99359019     12.21272590      0.05733981      0.95857977     -1.01563550
Cl     15.07569501      9.67024475      9.84147251      0.04303516     -0.52536851      0.46233243
Cl     13.61291461     11.11584628     16.50816110      0.00897130     -0.20936286      0.16920590
17
Lattice="25.1 0.0 0.0 0.0 25.1 0.0 0.0 0.0 25.1" Properties=species:S:1:pos:R:3:forces:R:3 energy=-38.81526492 stress="0.00013800283759576878 1.996935268224331e-05 -0.00011350591291813713 1.996935268224331e-05 0.0002486809661478241 -8.243476298764876e-05 -0.00011350591291813713 -8.243476298764876e-05 0.00030310242559744636" free_energy=-38.89911307 pbc="T T T"
Ag     12.55974653     12.53222300     12.79846474      0.02203759     -0.57285590      0.81403544
Ag     14.74148553     12.68255834     10.53394993      0.00524419     -0.22622643     -0.77806891
Ag     14.55410216     10.49336981     12.56770759      0.01243324     -0.14158742      0.18003981
Ag     14.56804958     14.68615233     12.19837638      0.02144262      0.70735332      0.08439089
Ag     14.79850032     12.68128720     14.65757543      0.00909237     -1.04216247     -0.80352089
Ag     16.57522444     12.40918475     12.56180004      0.01834781      0.16212842      0.53721577
Ag     10.59717748     12.50226043     10.57309255      0.02625861     -0.25097873      0.74834280
Ag     12.73369746     14.61728710     10.40069046      0.01084784     -0.85214080      0.26902276
Ag     12.45321943     10.69128554     10.40312990      0.02059816      0.84655576     -0.82159563
Ag     12.59088608     12.72179869      8.63890713      0.01455925     -0.07045378     -0.47839597
Ag     10.49695412     10.07314169     12.72686651      0.02463410     -0.64387564      0.71625141
Ag     12.31566272     10.46252286     14.55904524      0.00816444      0.56641304     -0.35387871
Ag     12.49968077      8.49008594     12.48300320      0.00676146      0.53797151     -0.09278630
O      16.66263492     13.34590781     14.63042699      0.03493713      0.60529874      0.08503864
O      10.71860065     13.82871283     12.25610084      0.06802454      0.92027286     -0.81812590
Cl     15.02699219      9.63678247      9.83427183      0.05269428     -0.49390720      0.45050540
Cl     13.55520624     11.13460337     16.46375834      0.01984858     -0.05180529      0.26152940
17
Lattice="25.1 0.0 0.0 0.0 25.1 0.0 0.0 0.0 25.1" Properties=species:S:1:pos:R:3:forces:R:3 energy=-39.14545796 stress="2.7094821779588912e-05 -5.43709531577756e-05 -0.00011933590686433266 -5.43709531577756e-05 0.000157696215710502 -0.0002826507602975004 -0.00011933590686433266 -0.0002826507602975004 -0.00014220125736589455" free_energy=-39.21717375 pbc="T T T"
Ag     12.55089042     12.55490620     12.82667016      0.00642071     -0.25437154      0.54099528
Ag     14.75031183     12.68843759     10.53454165      0.01066056     -0.26146421     -0.86337717
Ag     14.53107115     10.49806792     12.55324118      0.00401941     -0.00714533      0.23680560
Ag     14.58125356     14.67743419     12.17431235      0.00732607      0.82440454      0.26238831
Ag     14.79507971     12.67311681     14.68304635      0.02054120     -2.09423470     -1.32377740
Ag     16.59096181     12.42868389     12.57591062      0.00919021      0.16737207     -0.15161437
Ag     10.56510553     12.54273283     10.62387978      0.01404983      0.16692105     -0.62415832
Ag     12.77085732     14.63453054     10.39103225      0.00597517     -0.79195195      0.21033247
Ag     12.49334873     10.64704973     10.41239081      0.00520071      0.38117449     -0.22858567
Ag     12.60555309     12.73174977      8.61541344      0.00525758     -0.23631820     -0.57009654
Ag     10.43687335     10.05621394     12.70179623      0.00796377     -0.07543839      0.61199833
Ag     12.35204424     10.45316228     14.57678616      0.01507943     -0.16883040     -0.70813964
Ag     12.52766390      8.48385929     12.47620499      0.01301977      0.24277178      0.13451242
O      16.55274824     13.35859795     14.37651344      0.05037530      1.57510003      1.15704778
O      10.66863968     13.57369390     12.27063487      0.06094690      0.50194281      0.40375156
Cl     14.95121432      9.63286293      9.86424881      0.08140755     -0.33797795      0.33501125
Cl     13.50038765     11.16637954     16.41214028      0.00903688      0.36804590      0.57690611
17
Lattice="25.1 0.0 0.0 0.0 25.1 0.0 0.0 0.0 25.1" Properties=species:S:1:pos:R:3:forces:R:3 energy=-39.42708477 stress="0.0002688231649422905 5.546402240948241e-05 -0.00021346735781803264 5.546402240948241e-05 0.0001928541497788906 -0.00036123746438829576 -0.00021346735781803264 -0.00036123746438829576 -0.0002637512522115065" free_energy=-39.49575568 pbc="T T T"
Ag     12.53985718     12.58529827     12.84461604      0.01613811      0.43715892      0.13342755
Ag     14.75548874     12.67898012     10.52769734      0.00420591     -0.33225717     -0.72429788
Ag     14.50605719     10.50691762     12.53081584      0.00976297      0.13877547      0.35216804
Ag     14.61169300     14.67010043     12.17660429      0.01582965      0.82772960      0.21442293
Ag     14.75004010     12.64754052     14.71367284      0.02064405      0.39066621     -0.19498780
Ag     16.61008439     12.44604286     12.57750926      0.02499229     -0.02560025     -1.02960058
Ag     10.53591364     12.57289859     10.65199644      0.01330455      0.42061539     -0.64507541
Ag     12.79053206     14.65417742     10.38632965      0.01485215     -0.62028414      0.07518593
Ag     12.53814018     10.60039123     10.42614767      0.01196510     -0.19838721      0.23400093
Ag     12.61500069     12.72971960      8.58311319      0.01168872     -0.31162685     -0.49117659
Ag     10.37015378     10.04642825     12.66869430      0.01956485      0.38883357      0.50180297
Ag     12.39055808     10.43245380     14.57915601      0.00725742     -0.49448302     -0.83426442
Ag     12.55902853      8.47869429     12.47318762      0.00491368     -0.08385176      0.24666797
O      16.67258745     13.51783280     14.16088418      0.01704493     -0.83658503      0.95118547
O      10.68167557     13.38434421     12.42357858      0.03076101     -0.26890566      0.45754462
Cl     14.85542790      9.65162595      9.92658236      0.08559391      0.01412270      0.08283010
Cl     13.47068503     11.22298309     16.39539747      0.01736841      0.55407921      0.67016615
17
Lattice="25.1 0.0 0.0 0.0 25.1 0.0 0.0 0.0 25.1" Properties=species:S:1:pos:R:3:forces:R:3 energy=-39.42821802 stress="0.00029568466662773565 0.00013390653515645158 -0.00013388200602558687 0.00013390653515645158 0.00036204527170691323 -0.00014280358172106967 -0.00013388200602558687 -0.00014280358172106967 0.00021050036283240715" free_energy=-39.49939854 pbc="T T T"
Ag     12.53537463     12.61755332     12.85487918      0.00872330      1.00935526     -0.00887072
Ag     14.75556625     12.65539616     10.51484398      0.00982748     -0.36905337     -0.41323408
Ag     14.48129662     10.52489222     12.50916144      0.01725055      0.31563735      0.47668904
Ag     14.65926244     14.66555064     12.20339383      0.00648494      0.77977047     -0.01005042
Ag     14.70399876     12.61991008     14.74409270      0.01344790      1.02021599      0.32309112
Ag     16.63415926     12.45009638     12.55193228      0.01217895     -0.16455955      0.06099528
Ag     10.51792522     12.59034510     10.65664247      0.01046184      0.69972734     -0.03602082
Ag     12.79774167     14.67605853     10.38206978      0.00768254     -0.34246991     -0.12668397
Ag     12.57844957     10.55729121     10.44308225      0.00546040     -1.18480977      0.68480721
Ag     12.61770417     12.71676844      8.54678994      0.00293204     -0.37072274     -0.35129962
Ag     10.30849318     10.04218590     12.63170082      0.00754003      0.70586838      0.50923806
Ag     12.42328020     10.39620205     14.55744197      0.01394409     -0.31010656     -0.53213750
Ag     12.58778420      8.47716685     12.47577455      0.00994220     -0.32775549      0.20133885
O      16.74524059     13.79088236     14.09574245      0.03792740     -1.48173834     -0.44903542
O      10.66702732     13.26801503     12.71535618      0.02630434     -0.97128765     -0.23658982
Cl     14.74876197      9.68355576      9.99959118      0.06644632      0.80148916     -0.39058914
Cl     13.46448687     11.30358124     16.42621189      0.01242429      0.19043943      0.29835194
17
Lattice="25.1 0.0 0.0 0.0 25.1 0.0 0.0 0.0 25.1" Properties=species:S:1:pos:R:3:forces:R:3 energy=-39.21318528 stress="0.0003503077580296696 0.00014254891566571536 -2.9367386459868635e-05 0.00014254891566571536 0.0004667242364494251 -5.193673963264463e-05 -2.9367386459868635e-05 -5.193673963264463e-05 0.0004406034645840215" free_energy=-39.28402531 pbc="T T T"
Ag     12.54434629     12.65065512     12.86004229      0.01591881      0.39607843      0.28896870
Ag     14.74568249     12.62381246     10.49995862      0.01437117     -0.39876648     -0.06041253
Ag     14.46281295     10.55407637     12.49478004      0.00447936      0.48503040      0.52393949
Ag     14.71807512     14.66251348     12.24860406      0.01740615      0.70463971     -0.21938683
Ag     14.66661362     12.59480962     14.76616963      0.00677178      1.04482950      0.48968865
Ag     16.66332543     12.45924531     12.53144009      0.00426447     -0.24806154      0.44563528
Ag     10.51574208     12.60525883     10.66542030      0.00602903      0.75036723     -0.05075402
Ag     12.79765808     14.69526491     10.37756743      0.01380110     -0.03749445     -0.29620921
Ag     12.59395931     10.52655975     10.46372346      0.01110705     -2.12944561      1.04873099