20
Lattice="25.1 0.0 0.0 0.0 25.1 0.0 0.0 0.0 25.1" Properties=species:S:1:pos:R:3:forces:R:3 energy=-52.04923888 stress="0.0004726632445940133 6.7492995838377425e-06 0.0001859634550473151 6.7492995838377425e-06 0.0007299935505337764 -4.435580888985595e-05 0.0001859634550473151 -4.435580888985595e-05 0.0007305233298283814" free_energy=-52.13740909 pbc="T T T"
Ag     10.30539989     12.81780725     15.02326272      0.02000228     -0.60333526     -0.49144375
Ag     15.26431754     11.95497099      9.00697377      0.01446799      0.23985679     -0.40920176
Ag     12.90836130     12.56033517     14.55977008      0.02188588     -0.50095097      0.73289921
Ag     13.53420122     14.93352145     12.20075697      0.01727543      0.32951257     -0.79276235
Ag     15.23228178     11.47129845     14.24049539      0.02133315      0.51762591     -0.14528597
Ag     15.04769339     12.11306451     11.63892241      0.01787930      0.01044460      1.12655573
Ag     12.63592122     11.75595238      7.96656375      0.02703556     -0.93136573      0.81618399
Ag     13.80815652     14.14380564      9.50939105      0.01630563     -1.05094177     -0.29797699
Ag     11.33000101     13.17056544     11.98696813      0.01937495     -0.72961835      0.47488774
Ag     13.89339411      9.34375958      8.82208374      0.02076261     -0.65241908      0.76198602
Ag     11.20016314     10.40314066     13.35845005      0.01861575     -0.94268801      0.18039782
Ag     12.97257204     10.08855497     15.71157004      0.01571164     -0.19618253      0.13107760
Ag     12.65105038     11.03513652     11.43375387      0.05010739      0.69317290     -0.68351233
O      14.51204903     13.77789044     13.81749119      0.02005075     -0.11980445     -0.95669010
O      11.39143067     11.39947990     16.18048453      0.03218866      0.44905236      0.06937664
Cl     16.26964342      9.76690531      8.30937966      0.00188881     -0.32983454     -0.05840610
Cl     15.24403415      9.32815797     15.66876545      0.00184531     -0.07431308      0.31248309
O      12.25862698     13.91812285      7.87736107      0.00700138      1.16877842     -0.84783220
Cl      8.95060052     12.14305267     12.31124242      0.03037336      0.90369018      0.24822109
O      11.66071668     10.43767157      9.55844473      0.00871088      1.81932003     -0.17095737
20
Lattice="25.1 0.0 0.0 0.0 25.1 0.0 0.0 0.0 25.1" Properties=species:S:1:pos:R:3:forces:R:3 energy=-53.49894367 stress="0.00021522082242582182 -5.0566753345549764e-05 0.00012645110243765704 -5.0566753345549764e-05 0.0003083027573784954 -7.854076658362883e-05 0.00012645110243765704 -7.854076658362883e-05 0.0006271640884999738" free_energy=-53.57075259 pbc="T T T"
Ag     10.07964689     12.80236142     14.88407009      0.01359501     -0.11775110      0.09254626
Ag     15.44419908     11.96582021      8.81164074      0.01264146     -0.17963730      0.40425723
Ag     12.79534352     12.77057882     14.35014610      0.01818289      0.23875302     -0.36049728
Ag     13.52987279     14.57767380     12.45294320      0.01265435     -0.13872548      0.94043855
Ag     15.40773123     11.18755494     14.32366274      0.01942888     -0.32380065      0.91722213
Ag     14.79280733     12.43303721     11.64426984      0.02013642      0.39186600     -0.83795472
Ag     12.27825712     11.63657272      7.78809428      0.05050438      0.34508878      0.19657643
Ag     13.89709279     14.20215090      9.56456278      0.01476596     -0.72316703     -0.64245755
Ag     11.14990462     13.53114441     11.99860321      0.01913837      0.38491819     -0.14457807
Ag     14.30540822      9.57333554      9.01457834      0.01930361     -3.06408944     -0.05295999
Ag     11.07416876     10.51558695     13.83500138      0.01343307      0.12094594     -0.09614996
Ag     13.14380153     10.18469727     15.83924844      0.01365168      0.41041366     -0.28063499
Ag     12.63603560     10.72605646     11.30713390      0.05084636     -0.27526052      0.25221589
O      14.96117488     13.16743283     13.52145924      0.00474611      0.28921971     -0.29775688
O      11.50209062     11.36907608     15.92180215      0.00604558     -0.52526828      0.53175096
Cl     16.31100990      9.60426965      8.09708119      0.01114773      1.46296237      0.21703826
Cl     15.12906541      9.02534707     15.13877063      0.00311405      0.05562518     -0.38742452
O      12.69171365     13.70442355      7.69596313      0.01123407      0.55359874     -0.42970994
Cl      9.17091744     12.24439803     12.34882933      0.02387259     -0.34737841     -0.22699554
O      12.02320851      9.97751471      9.46259122      0.00321747      1.44168663      0.20507372
20
Lattice="25.1 0.0 0.0 0.0 25.1 0.0 0.0 0.0 25.1" Properties=species:S:1:pos:R:3:forces:R:3 energy=-55.1053185 stress="0.00033502091032384636 0.00012666916204198803 5.859058781742024e-05 0.00012666916204198803 6.297754485371155e-05 6.0307146381748035e-05 5.859058781742024e-05 6.0307146381748035e-05 0.0001823205920044842" free_energy=-55.13038424 pbc="T T T"
Ag     10.57098876     13.05915627     14.45904973      0.01164647     -1.12768261      0.19335381
Ag     15.26106694     12.55650848      8.38992146      0.01439488     -0.65986123     -0.00746968
Ag     13.13447722     12.93409195     14.27083373      0.01407641     -0.28616617     -0.24216753
Ag     14.06835783     14.53239185     12.34001930      0.01245885     -0.63918584      1.15024352
Ag     15.15727803     10.94069237     14.07101191      0.01738102      0.35884818      0.00060566
Ag     14.48947104     12.11872520     11.27543848      0.02067695     -0.37210109     -0.72320606
Ag     12.64644187     11.52985588      8.86003632      0.03432541      0.21450524     -0.17178614
Ag     13.20152079     14.30429104      9.57472461      0.01322882     -0.05655956      0.65146210
Ag     11.36046401     13.60188366     12.05873023      0.01583860      0.42409222      0.08953117
Ag     14.78181321      9.58895617      9.13519348      0.02558800     -0.04258020      0.70111400
Ag     10.39271423     10.30465794     14.01104357      0.01181238     -0.00060983      0.18232444
Ag     12.84681751     10.27646574     15.45771123      0.01245766     -0.94743339      0.44221881
Ag     12.43923121      9.97162753     11.59114302      0.05154671      0.14740832      0.15403135
O      14.99995544     12.76437938     13.23695318      0.00677336      1.16381504      0.25795810
O      11.16575745     11.47958428     15.74965547      0.00962984      0.21315864     -0.52176506
Cl     17.00031265     10.91091216      8.74070568      0.00369615     -0.52103108     -0.25657656
Cl     14.88450525      9.21339177     15.53848039      0.00872054      0.58014119     -1.14173204
O      13.09130484     13.39648174      7.87084091      0.00302696      0.57880601     -1.30620603
Cl      8.96897604     12.42334055     12.40555746      0.03055756      0.65278402      0.06864569
O      12.62122575      9.48065647      9.45830508      0.00446943      0.31965215      0.47942045
20
Lattice="25.1 0.0 0.0 0.0 25.1 0.0 0.0 0.0 25.1" Properties=species:S:1:pos:R:3:forces:R:3 energy=-54.39828725 stress="0.0007680621312434021 7.217534477706941e-05 5.395539348017429e-05 7.217534477706941e-05 0.0006671077933132702 4.412946680291492e-06 5.395539348017429e-05 4.412946680291492e-06 2.261937886841995e-05" free_energy=-54.42851881 pbc="T T T"
Ag     10.39784559     13.56011096     14.34232917      0.01507006      0.08771582      0.06605140
Ag     14.67259133     12.22097446      8.05175463      0.01436687      0.49585635     -0.12426559
Ag     13.07366836     12.52477983     14.36136033      0.01265167      0.22158559      0.46336228
Ag     14.47906544     14.82883838     12.29698152      0.02324916     -0.54301354     -1.01834410
Ag     15.00785961     10.83163002     13.79354520      0.01724974      1.26660495     -0.01234827
Ag     14.01825537     12.19748607     11.50337524      0.01555667     -0.16716165      0.53106034
Ag     12.33325252     11.10034483      9.36905798      0.02243023      0.46731927      0.86746874
Ag     12.87366144     14.07389117      9.68245366      0.01232218      0.50374233     -0.43634586
Ag     11.53334517     13.79404852     11.90735406      0.02049835      0.40171047     -0.12895799
Ag     15.59816395     10.53034497      9.98220857      0.02279365     -0.52855289     -0.65375143
Ag     10.51394387     11.06810061     13.40826654      0.01934369      0.45838687     -0.47315511
Ag     12.58508093      9.49400219     15.04715076      0.01328752      0.37055514      0.69262062
Ag     12.98587082      9.71933983     12.33684807      0.01773269     -0.83519814     -0.11733742
O      15.49615485     12.93078095     13.85067063      0.05109468     -1.74176953     -0.47690203
O      11.37241267     11.44787078     15.35957056      0.01195834      0.48710183     -0.57063966
Cl     16.96057922     11.14087639      8.06372392      0.00138652     -0.53867808      0.33388240
Cl     14.97214897      8.34681440     14.33797190      0.01328434     -0.87562704      0.74289613
O      12.73200600     12.80291331      7.79144768      0.00240471     -0.27725918      0.10326780
Cl      9.26735685     12.49568525     11.95330386      0.01420323     -0.33643565      0.30388017
O      13.38495569      9.67561005     10.51297840      0.02403493      1.08311709     -0.09244243
20
Lattice="25.1 0.0 0.0 0.0 25.1 0.0 0.0 0.0 25.1" Properties=species:S:1:pos:R:3:forces:R:3 energy=-54.65327223 stress="0.0008056807365941063 -0.00011774474645985297 1.3710329881752822e-05 -0.00011774474645985297 0.0007779302879714073 3.572350217632136e-05 1.3710329881752822e-05 3.572350217632136e-05 0.0004540141770616954" free_energy=-54.72065519 pbc="T T T"
Ag     10.28215269     13.66563937     14.67590045      0.01975959     -0.02163184     -0.20326724
Ag     14.47916815     12.63377427      7.43173135      0.05247535     -0.82837642     -0.11923429
Ag     13.08713271     12.99327016     14.62094319      0.01729662      0.84767404     -0.50264276
Ag     13.95372579     14.77868840     12.70021988      0.01057253      0.29865055     -0.85347886
Ag     16.11204054     11.60130329     13.22583417      0.02335863     -0.49060050      0.72490707
Ag     13.59543259     11.60160365     12.09994396      0.01529117     -0.31129479      0.06273138
Ag     13.00268025     10.67631762      9.43471320      0.02459156      0.64098519     -1.01304665
Ag     13.33114937     13.63469625     10.18733972      0.01825168      0.19484713      0.23919083
Ag     11.16040321     13.90412819     11.69651893      0.01332891      0.15051697      0.15326850
Ag     15.51424591      9.89489488     10.89367166      0.01047563     -0.08810723      0.17613052
Ag     10.66798861     11.36290419     12.68354175      0.01700438      0.33551016      0.11662900
Ag     12.50794552     10.09410115     14.53914681      0.01582940     -0.52654281      0.38272106
Ag     13.34414637      8.49994715     12.16771509      0.01876230     -0.28403053     -0.23935901
O      15.45079037     13.49791035     14.20025052      0.02050582     -1.40506687     -0.47086925
O      11.31215535     11.80084843     15.16469700      0.00637289      0.71916753     -0.08117407
Cl     16.24737538     12.60452902      6.02279713      0.03590380      0.12043222      0.03573217
Cl     13.08496337      7.77782787     14.48791382      0.00178445      0.01133599      0.32414626
O      12.65303179     12.52504451      8.60990944      0.00327160      0.42632912     -0.17187295
Cl      8.79508610     13.63495316     12.66725998      0.00652187      0.28622963      0.01340984
O      13.86753806      8.58965207     10.29686598      0.00410435     -0.07602755      1.42607845
20
Lattice="25.1 0.0 0.0 0.0 25.1 0.0 0.0 0.0 25.1" Properties=species:S:1:pos:R:3:forces:R:3 energy=-55.15030334 stress="0.00021829188209310314 0.00013491134946911842 -0.0001639915204035413 0.00013491134946911842 0.00026721767403285783 0.00017770483372665628 -0.0001639915204035413 0.00017770483372665628 8.220862687050888e-05" free_energy=-55.23816646 pbc="T T T"
Ag     10.30308197     13.39090639     14.61895888      0.01293883     -0.75362517      0.01184253
Ag     14.62479478     12.65407807      7.27568323      0.05152774     -0.70592216     -0.09257750
Ag     13.33116579     12.91005954     14.73727327      0.02575336      1.13588701      0.06933911
Ag     14.02052538     14.61922568     12.55643236      0.01379869     -1.29790580      1.36105742
Ag     16.12166468     11.92823948     12.99827888      0.01581365     -0.03913558     -0.32251518
Ag     13.46762631     11.30935860     12.16994482      0.01156055     -0.89556044      0.50507535
Ag     13.31163179     10.71344079      9.49095219      0.02665457      0.06188881     -2.75770294
Ag     13.42265806     13.49079914     10.34082059      0.01552071     -0.56643817     -0.50258901
Ag     11.08709685     14.00070032     11.81333931      0.00906339      0.50492787     -0.09220750
Ag     15.45795616     10.11588223     10.97884709      0.00968521      0.65611179     -0.73802403
Ag     10.52659984     11.31758969     12.59130775      0.01335132      0.47920627      0.24706740
Ag     12.31923477     10.22059048     14.65508924      0.00988500     -0.47668003      0.62361977
Ag     13.21656178      8.36972231     12.25173485      0.01424341     -0.16012965      0.21062920
O      15.06969736     13.54314249     13.78172272      0.01157812      1.02297399     -0.67632282
O      11.66702945     12.20166789     15.48457442      0.01075802     -0.01691957     -1.29258840
Cl     16.09231641     12.99172605      5.54878282      0.00529143     -0.02936304     -0.02278500
Cl     12.68876789      7.87694763     14.53575382      0.00076657      0.03304505      0.02142997
O      12.90273831     12.32069110      8.53690116      0.00290394      0.50217491      1.81818811
Cl      8.75428472     13.93986221     12.76586782      0.00879029      0.27507127      0.04482295
O      13.79364499      8.62199639     10.37554801      0.00930019      0.27039265      1.58424057
20
Lattice="25.1 0.0 0.0 0.0 25.1 0.0 0.0 0.0 25.1" Properties=species:S:1:pos:R:3:forces:R:3 energy=-55.19087363 stress="0.0005140448495552034 -0.0001003724108267802 -0.00016251457337455614 -0.0001003724108267802 0.00037665316805002275 -0.0002715315305142668 -0.00016251457337455614 -0.0002715315305142668 0.00031422209852782795" free_energy=-55.28396574 pbc="T T T"
Ag     10.34153869     13.07931485     14.50578198      0.01150285      0.51826852     -0.23545698
Ag     14.68422377     12.65834132      7.13193241      0.05454028      0.36188990      0.39852843
Ag     13.55606820     12.77555150     14.79085497      0.01481242      0.09862621      0.43266380
Ag     13.98458916     14.52963362     12.40710041      0.01005813      0.42522570      0.03598895
Ag     16.08847971     12.16710165     12.77517031      0.01306720     -0.53249342      0.61866041
Ag     13.20964740     11.22225583     12.37357596      0.00956829      0.59329530      0.63893420
Ag     13.43828046     10.65079816      9.45113235      0.01801732     -0.52837409      1.70272493
Ag     13.41256045     13.33742139     10.29985765      0.02006271     -0.53381177     -0.16322531
Ag     11.13949307     14.06075783     11.94142153      0.01053983      0.89736465     -0.10015576
Ag     15.61042217     10.16954625     11.07056726      0.01105755      0.93220423      0.35438099
Ag     10.51543814     11.32897266     12.50074301      0.01223106      0.05950237     -0.16895055
Ag     12.07624774     10.39907560     14.80992130      0.01164771     -0.28786483     -0.96803571
Ag     13.10009600      8.40012928     12.33873036      0.01968519      0.49459675      0.57156818
O      15.36210867     13.74373741     14.13855668      0.00437936     -0.92180503     -0.58078570
O      11.71911133     12.10868241     15.94867759      0.00325630      0.17439286      0.50567212
Cl     15.99469036     13.26618918      5.35862443      0.00462289     -0.00614568     -0.19769368
Cl     12.38796504      7.82436463     14.49353280      0.00680553     -0.12554201      0.70173020
O      13.22195582     12.56495176      8.46524436      0.00920155     -0.58605700     -1.32772958
Cl      8.89631815     14.16484009     12.90324235      0.01062942     -0.04999583     -0.09514778
O      14.05884184      9.04437558     10.38877861      0.00905422     -0.98327682     -2.12367115
20
Lattice="25.1 0.0 0.0 0.0 25.1 0.0 0.0 0.0 25.1" Properties=species:S:1:pos:R:3:forces:R:3 energy=-55.49068249 stress="0.00014360114672321153 5.661537487340672e-05 7.244704391082824e-05 5.661537487340672e-05 0.0003428523939674754 -0.00010208777726286494 7.244704391082824e-05 -0.00010208777726286494 0.00012118598379188135" free_energy=-55.58229913 pbc="T T T"
Ag     10.42939840     12.81565935     14.48685117      0.00862510     -0.48889863      1.24523361
Ag     14.70794787     12.68277108      6.99311549      0.05039697      0.15558949      0.23908580
Ag     13.70982914     12.68883635     14.85549659      0.01644836      1.26447331      1.13621180
Ag     13.99784929     14.47816424     12.47414854      0.00787698     -0.78358512      0.30832827
Ag     15.96545399     12.40407416     12.64574082      0.01183013      0.28397343     -0.89604811
Ag     13.08571004     11.25828648     12.51351073      0.01440304      1.23285063      0.56651006
Ag     13.49041879     10.58120465      9.39739224      0.01966156      0.06062449     -0.14410092
Ag     13.32808184     13.24207354     10.23344523      0.01652573     -0.36489035     -0.38076001
Ag     11.28569418     14.09703403     12.00669513      0.00456465      0.08997710     -0.19734922
Ag     15.80875500     10.20908991     11.19035948      0.00996319     -0.86118096     -0.46473161
Ag     10.51116284     11.30922992     12.36288375      0.00825440     -0.45333879     -0.22547281
Ag     11.88070666     10.36785612     14.93823091      0.01001490      0.14548129      0.18978318
Ag     13.04386761      8.51381240     12.34942902      0.02487469     -0.60819499      0.07721326
O      15.27723545     13.77066407     13.91019464      0.00316878      0.01149520      0.17382607
O      11.99477990     12.40202163     15.75503466      0.00375880     -0.97844035     -1.49934605
Cl     16.00053391     13.40010952      5.28471611      0.00035075      0.17015332     -0.03237823
Cl     12.07328023      8.01576284     14.47747366      0.00669017      0.05746730      0.12208649
O      13.21629911     12.20572293      8.18281187      0.01103664     -0.26897084     -0.19936659
Cl      8.99373881     14.31866017     13.07322529      0.00347383      0.44515064     -0.53391876
O      13.75026021      8.90361029     10.57537563      0.02032497      0.89026383      0.51519380
20
Lattice="25.1 0.0 0.0 0.0 25.1 0.0 0.0 0.0 25.1" Properties=species:S:1:pos:R:3:forces:R:3 energy=-55.22448997 stress="0.0007098563449466108 0.00021635873692059805 -0.0001669613240682734 0.00021635873692059805 0.00039682017060175547 -0.00010332495047727013 -0.0001669613240682734 -0.00010332495047727013 0.0008119353404061356" free_energy=-55.32203933 pbc="T T T"
Ag     10.46010243     12.71072098     14.48294403      0.01012586      0.43523192      0.71594166
Ag     14.70508301     12.70282045      6.88548147      0.05670541     -0.71854750     -0.08664582
Ag     13.82971562     12.67202638     14.89900723      0.01247123      0.14147261      0.96332668
Ag     13.97090051     14.46711799     12.52527487      0.00848410      0.29352705     -0.06852652
Ag     15.86708503     12.53335402     12.52896917      0.00920874     -0.03538210      0.10553664
Ag     13.10397352     11.34842889     12.56098539      0.00665314      0.67399292      0.62989391
Ag     13.51498660     10.48129058      9.38734980      0.01207702      0.14203711      0.28225369
Ag     13.23371065     13.17266598     10.15486261      0.00992830     -0.17246669     -0.08909841
Ag     11.40162904     14.11298006     12.04073098      0.00657568     -0.49600893     -0.34076160
Ag     15.87933909     10.19543655     11.26414908      0.01039232     -0.91884861     -0.48525025
Ag     10.47403271     11.26143589     12.19508577      0.01273755      0.01061370      0.09940654
Ag     11.76391707     10.28716966     15.02777367      0.01080752      0.43586736      2.34365251
Ag     12.97129693      8.59534439     12.40090953      0.01408654      0.26249532      0.25791789
O      15.54610628     14.06129645     14.03725755      0.00229669     -1.07300368     -1.11645234
O      11.98991023     12.29111011     16.00340908      0.00410234     -0.09824011     -1.28056873
Cl     16.08400849     13.49058220      5.23692102      0.00487131     -0.04651488     -0.11926271
Cl     11.83110129      8.15206606     14.43575463      0.00843215     -0.00853876     -1.54745138
O      13.14873594     12.16248512      8.26056400      0.00611284      0.75809956     -0.04521008
Cl      9.16156152     14.35726482     13.23945140      0.00498096      0.23439999     -0.33763781
O      13.99952623      8.90254591     10.58446222      0.00815563      0.17981370      0.11893615
20
Lattice="25.1 0.0 0.0 0.0 25.1 0.0 0.0 0.0 25.1" Properties=species:S:1:pos:R:3:forces:R:3 energy=-55.13922691 stress="0.00032261230958538777 0.0001613603872654887 -0.00024310350990237094 0.0001613603872654887 -0.00013062637245043492 -0.0002777352160948472 -0.00024310350990237094 -0.0002777352160948472 0.0005021912250836909" free_energy=-55.2316563 pbc="T T T"
Ag     10.51292161     12.66278878     14.51955078      0.00766956     -0.23749411      0.83045692
Ag     14.66480292     12.71086647      6.82170917      0.05456952      0.08745542      0.09294068
Ag     13.95382879     12.71173089     14.93147344      0.00968493     -0.87898336      0.05298177
Ag     13.95364367     14.46040141     12.57755630      0.01166859     -0.25707036      0.42656240
Ag     15.78000632     12.62597807     12.45252949      0.01064272      0.51472527     -0.67237734
Ag     13.16722172     11.45866783     12.57136038      0.01162348     -0.06555609      0.35995006
Ag     13.53750394     10.42189296      9.38469072      0.01413306      0.70067579     -0.76653848
Ag     13.14896349     13.12426442     10.11305760      0.01438851     -0.07136990      0.11314502
Ag     11.46983575     14.10787624     12.06586430      0.00833776     -0.83429246     -0.42192614
Ag     15.88207671     10.16041690     11.31392080      0.00740967     -0.09600387      0.09415096
Ag     10.44268799     11.21275621     12.03645436      0.00954065      0.52313125      0.29025856
Ag     11.69197527     10.29576339     15.11730815      0.02032475      0.11994855     -4.46641537
Ag     12.92534273      8.68399514     12.39887091      0.01406417     -0.13642275     -0.10721992
O      15.38360821     13.98768956     14.06026506      0.00359383      0.16265008     -0.32842245
O      11.90524379     11.93361148     15.84938019      0.00820173      1.50281021      3.88729718
Cl     16.15034689     13.53463648      5.24893439      0.00894819     -0.28565401     -0.19133470
Cl     11.61735301      8.05277841     14.35395901      0.00652705      0.05008901      0.19302717
O      13.33428757     12.10725709      8.27101846      0.01222316     -0.02363201      0.19388798
Cl      9.33565018     14.35979931     13.35661724      0.00712498     -0.12462868     -0.06909056
O      14.30516252      8.85430624     10.93160004      0.00719131     -0.65037798      0.48866626
20
Lattice="25.1 0.0 0.0 0.0 25.1 0.0 0.0 0.0 25.1" Properties=species:S:1:pos:R:3:forces:R:3 energy=-55.243311 stress="5.864005801875199e-05 0.00014407470874511964 8.688573918304427e-06 0.00014407470874511964 0.0004078204372210497 9.231412946604395e-05 8.688573918304427e-06 9.231412946604395e-05 0.0005283288615067525" free_energy=-55.34396226 pbc="T T T"
Ag     10.58776291     12.65880351     14.56811016      0.01038415      0.98280541     -0.05980122
Ag     14.63275562     12.72320322      6.73933490      0.06206711     -0.24171189     -0.25046752
Ag     14.01713047     12.75499044     15.02179156      0.01692406     -0.46613180      0.25028655
Ag     13.91634932     14.49544953     12.61641034      0.00475195      0.14666015      0.63274196
Ag     15.71913089     12.67673566     12.36410414      0.00671343      1.00620463     -0.71422599
Ag     13.24538492     11.61363425     12.55386050      0.00546443     -0.66901868     -0.02837616
Ag     13.61364845     10.31430136      9.46641577      0.01201120      0.31901425      0.60726356
Ag     13.05283049     13.07390370     10.10385425      0.00818077      0.10914950     -0.08471267
Ag     11.48286032     14.07056524     12.07984037      0.00943117     -0.96441827     -0.50714066
Ag     15.88239701     10.14239645     11.38087541      0.00730893      0.11997425      0.27703490
Ag     10.44081767     11.16027174     11.85676273      0.02014998      0.79991419      0.36589423
Ag     11.63160429     10.14843948     15.14373921      0.01501622      0.70755174      0.83105148
Ag     12.86128622      8.79290378     12.41070952      0.01229803     -0.41856727     -0.15299836
O      15.40060684     13.85602827     14.08270051      0.00567722      0.63583582      0.15810242
O      12.29425959     12.30482100     15.90224678      0.00763084     -1.17091404     -1.73893704
Cl     16.18192987     13.54986079      5.31350458      0.00016029     -0.00396022      0.02079237
Cl     11.38393675      7.94278353     14.16923310      0.00307025      0.20599599      0.45068883
O      13.42142834     12.01279493      8.26492036      0.00715993      0.00207205     -0.07818863
Cl      9.48832429     14.37826839     13.44081791      0.00615172     -0.70017668      0.37379575
O      14.23681945      8.95784636     10.93220384      0.00480060     -0.40027914     -0.35280380
20
Lattice="25.1 0.0 0.0 0.0 25.1 0.0 0.0 0.0 25.1" Properties=species:S:1:pos:R:3:forces:R:3 energy=-54.9284264 stress="0.00021486920700921518 0.00022704049308768946 3.334599900310816e-05 0.00022704049308768946 0.0003775232531466983 0.0001870656805929096 3.334599900310816e-05 0.0001870656805929096 0.0005104830699574268" free_energy=-55.02172717 pbc="T T T"
Ag     10.65034597     12.66113500     14.60485046      0.00344719      0.71597745      0.19231874
Ag     14.62170803     12.72514517      6.70436839      0.05723428     -0.71434864     -0.60142101
Ag     14.01756737     12.77741570     15.07851947      0.01036960      1.81383931      1.12745588
Ag     13.89580976     14.53489624     12.62845382      0.00682732      0.69365334      0.25524448
Ag     15.71808016     12.67437396     12.31552305      0.00972233      0.96590794     -0.09075532
Ag     13.27066417     11.69083704     12.53694357      0.00773462     -0.81735654     -0.23430243
Ag     13.66259004     10.28007218      9.51737697      0.01362668     -0.12281786      1.63584356
Ag     13.01024433     13.04468674     10.10504386      0.01245828      0.04018823      0.06171648
Ag     11.45802011     14.03752692     12.07474018      0.00902095     -0.85630924     -0.46606335
Ag     15.88992370     10.14622067     11.41975184      0.00539132     -0.61317854     -0.22556309
Ag     10.46043076     11.14053860     11.77647216      0.00306798      0.86133148      0.37534363
Ag     11.62288888     10.08261686     15.14533766      0.00461102      0.68977249      0.83288946
Ag     12.81764158      8.84387166     12.42960523      0.00648965     -0.39552399     -0.07684827
O      15.61546566     13.87125824     14.08355373      0.00610232     -1.02215711     -0.63130634
O      12.36198964     12.23391270     15.86405480      0.01099043     -2.20496259     -1.88845162
Cl     16.20115509     13.56101111      5.33043944      0.00129890      0.09229088      0.08932615
Cl     11.28978321      7.93664015     14.05602348      0.00161791      0.12857122      0.39623505
O      13.36953157     11.89702966      8.37686110      0.01010884      0.46768210      0.51734122
Cl      9.50584254     14.41771070     13.45914029      0.00327838     -0.51045069      0.07996442
O      14.05272314      8.93817425     10.82011940      0.00717257      0.78789076     -1.34896765
20
Lattice="25.1 0.0 0.0 0.0 25.1 0.0 0.0 0.0 25.1" Properties=species:S:1:pos:R:3:forces:R:3 energy=-54.92559981 stress="0.000506849974876378 6.464512005441941e-06 3.928444541187503e-05 6.464512005441941e-06 0.0003644797660999548 -0.0002436601713767811 3.928444541187503e-05 -0.0002436601713767811 0.0005574303908854043" free_energy=-54.99880457 pbc="T T T"
Ag     10.82381661     12.70932636     14.68173332      0.01017774      0.04351615      0.36251651
Ag     14.56249439     12.68693842      6.70618881      0.05249025      0.60017034      0.16620968
Ag     14.08304670     12.87543459     15.12799161      0.01629858     -1.40756736     -1.09790423
Ag     13.89596975     14.63375794     12.68404933      0.00766222      0.09887498     -0.23565859
Ag     15.77894233     12.66290288     12.22594627      0.01235388      0.61576558     -0.07350298
Ag     13.27123916     11.84220786     12.49833186      0.01143878     -0.72421011     -0.67886794
Ag     13.75996444     10.29609909      9.60743041      0.01525438      0.10961639     -0.13169514
Ag     12.91818789     12.97989648     10.11274837      0.00890712      0.16756135     -0.13780593
Ag     11.33918984     13.92850469     12.04598402      0.00872263     -0.34910012     -0.13762834
Ag     15.85513807     10.12204319     11.50040168      0.00642378     -0.83681712     -0.71736406
Ag     10.56354905     11.12415963     11.61413179      0.00918808      0.86653807      0.26615963
Ag     11.64654939      9.94813182     15.10709648      0.01937217     -0.37178228     -1.95658499
Ag     12.70027820      8.94619157     12.47322067      0.01457231      0.53037032     -0.00291699
O      15.56341972     13.67354633     14.00826431      0.00588178      0.09742358      0.78095598
O      12.09301494     11.57356441     15.92532035      0.01229176      1.30611969      2.98430862