25
Lattice="25.1 0.0 0.0 0.0 25.1 0.0 0.0 0.0 25.1" Properties=species:S:1:pos:R:3:forces:R:3 energy=-66.38338866 stress="0.0007560446546743169 0.00011733088447273392 -0.00030509354190671263 0.00011733088447273392 0.00021076913469838594 0.00019043327435876165 -0.00030509354190671263 0.00019043327435876165 0.0006374728645647205" free_energy=-66.51459555 pbc="T T T"
Ag     12.54880753     12.55049532     12.55063188      0.00928626     -0.56832953     -0.14047485
Ag     14.60156243     12.55141611     10.49837789      0.01238424      0.98730916      0.91241805
Ag     14.59967883     10.50020131     12.55160424      0.00028810     -0.30511435      0.18980339
Ag     14.60019971     14.60006613     12.54953387      0.00591141      0.33321378      0.03000504
Ag     14.60112270     12.55033395     14.59995889      0.00532121      0.89978535      0.25248867
Ag     16.64991699     12.55059704     12.55065684      0.00763524     -0.00975553      0.84697347
Ag     10.50025095     12.54965804     10.50036114      0.00586183      0.01161443      0.03590529
Ag     12.54913820     14.59995543     10.50110380      0.00628833     -0.67645955      0.10644210
Ag     12.54778583     10.49915464     10.49971436      0.00676960     -1.28920290     -0.68641703
Ag     12.55118166     12.54986344      8.44949994      0.01376954     -0.10961021     -0.72377329
Ag     10.49948374     10.50059371     12.55005243      0.01813722     -0.42395482      0.30809665
Ag     12.54853627     10.49994851     14.59967853      0.00612843     -0.90222667     -0.04551200
Ag     12.54993429      8.45042728     12.54991037      0.00802006     -0.24059069      0.16753082
O      16.86092090     12.37167894     14.72045180      0.00086998     -0.68674917      0.06526232
O      10.93953891     14.16721408     12.24344099      0.30046040      0.58356422     -0.58488264
Cl     14.99243718     10.15472796     10.27228266      0.03941619      0.84316013     -1.29918893
Cl     13.81280581     11.17973442     16.44105427      0.00193491      0.30222479     -0.18606034
O      10.39316440     11.42643519     14.70149738      0.20006022      0.42713414     -0.42610589
O      14.82774746     12.54834993      8.01810280      0.82707947     -0.44056122     -0.76268387
O      10.39362098      9.39149676     10.36212517      0.58186175      0.89399908      0.89313320
Cl     14.27013169     14.60183907      8.71665978      0.93854191     -0.84752846      1.25752955
Cl     12.57289791     14.44443234     14.22729412      0.65054971      1.09234544      0.31173552
Cl     10.63531177     10.55164558      8.14503022      0.98515647      0.68047731      1.20180598
Cl     10.54124768      8.50459966     14.05630737      0.14294855      0.25887322     -0.65893564
O      16.09853043     14.31283693     10.84765534      0.14853814     -0.81361796     -1.06509557
25
Lattice="25.1 0.0 0.0 0.0 25.1 0.0 0.0 0.0 25.1" Properties=species:S:1:pos:R:3:forces:R:3 energy=-66.97208771 stress="0.0007202542747277118 0.00011029477506154358 -0.00031359946430195725 0.00011029477506154358 0.00022312154937169335 0.00019873092383598462 -0.00031359946430195725 0.00019873092383598462 0.0006269481884578003" free_energy=-67.10932444 pbc="T T T"
Ag     12.54546285     12.55125477     12.55192819      0.00903623     -0.51920484     -0.16002878
Ag     14.60599616     12.55535946     10.49442981      0.00080739      0.93867168      0.73278277
Ag     14.59869189     10.50082525     12.55621490      0.00045426     -0.27177494      0.17850733
Ag     14.60111729     14.60024384     12.54818460      0.00578812      0.23331286      0.03673817
Ag     14.60447130     12.55120731     14.59988995      0.00508190      0.80246550      0.23474082
Ag     16.64970628     12.55254062     12.55263820      0.00798285     -0.02608705      0.88822321
Ag     10.50092156     12.54854218     10.50135371      0.00580930     -0.02148588      0.08615215
Ag     12.54646031     14.59984602     10.50436925      0.00611451     -0.67531111      0.09153646
Ag     12.54145870     10.49680423     10.49854916      0.00555232     -1.10947587     -0.70425954
Ag     12.55315984     12.54891697      8.44809268      0.00055856     -0.19001973     -0.73437057
Ag     10.49786791     10.50238391     12.54972216      0.00135284     -0.44270465      0.28303872
Ag     12.54478404     10.49956642     14.59874557      0.00589011     -0.81168823     -0.01716957
Ag     12.54974624      8.45152911     12.55004302      0.00703050     -0.23602196      0.15976773
O      16.84408591     12.37712480     14.69034307      0.00172771     -0.60269959      0.02451968
O      10.95565708     14.14762344     12.18213415      0.02905813      0.54090894     -0.60909366
Cl     15.00190943     10.14073757     10.26115643      0.00348106      0.66714107     -1.14446415
Cl     13.81391862     11.17862945     16.45232541      0.00218932      0.27960996     -0.17933462
O      10.41087553     11.42972806     14.67988587      0.01359821      0.39391971     -0.43202527
O      14.79865720     12.53960488      8.03136440      0.06502840     -0.37435398     -0.74907609
O      10.42432961      9.40989464     10.38433504      0.05355309      0.86437467      0.89774771
Cl     14.26011730     14.60781310      8.71865934      0.02952404     -0.81789049      1.30894865
Cl     12.59032073     14.44414954     14.23009096      0.05629706      1.13737841      0.31406299
Cl     10.63934940     10.56158729      8.14539571      0.04396643      0.65030431      1.18176661
Cl     10.54258810      8.49491996     14.05696479      0.00785259      0.26849116     -0.62839502
O      16.08041603     14.29175519     10.89124986      0.01492053     -0.67785997     -1.06031574
25
Lattice="25.1 0.0 0.0 0.0 25.1 0.0 0.0 0.0 25.1" Properties=species:S:1:pos:R:3:forces:R:3 energy=-68.79447575 stress="0.0005042291651944196 7.373085368142203e-05 -0.00027576201915828133 7.373085368142203e-05 0.00020017808014191193 0.0001980353014023958 -0.00027576201915828133 0.0001980353014023958 0.00045256941749527245" free_energy=-68.92982267 pbc="T T T"
Ag     12.53426020     12.55158754     12.55500907      0.00917404     -0.28276579     -0.30290429
Ag     14.62255702     12.56762941     10.48369317      0.00318804      0.63657014      0.14576443
Ag     14.59448581     10.50350968     12.57255789      0.00097878     -0.15997304      0.13662593
Ag     14.60504505     14.60133906     12.54429811      0.00617489     -0.36705458      0.10646233
Ag     14.61714118     12.55397008     14.60029848      0.00525377      0.36331710      0.18119662
Ag     16.64900552     12.56113570     12.55880817      0.01012313     -0.07969993      0.96033674
Ag     10.50333607     12.54388192     10.50485883      0.00609324     -0.16953499     -0.05989585
Ag     12.53662461     14.59992867     10.51426596      0.00629041     -0.35877914      0.08058170
Ag     12.52116306     10.48948612     10.49286720      0.00568122     -0.44727816     -0.68443944
Ag     12.55258689     12.54326959      8.44291465      0.00206701     -0.34067290     -0.71631827
Ag     10.49095187     10.50866876     12.54632014      0.00744651     -0.46765188      0.17682614
Ag     12.53220202     10.49784427     14.59596637      0.00604419     -0.48820046      0.07459832
Ag     12.54975851      8.45497395     12.55243220      0.00718687     -0.22231220      0.13632409
O      16.78400315     12.39473296     14.58162813      0.00366189     -0.18152858     -0.13594221
O      11.01917081     14.07869703     11.96308007      0.02184286      0.16233713     -0.30542089
Cl     15.03624015     10.08848256     10.21995755      0.01803165      0.16642449     -0.69491131
Cl     13.81752350     11.17457499     16.49363223      0.00354246      0.20682563     -0.17178904
O      10.46920209     11.42648150     14.59763712      0.01470138      0.23597094     -0.41007436
O      14.73097699     12.50294622      8.05372245      0.06588166     -0.23637301     -0.56995374
O      10.50918840      9.48202416     10.46577572      0.04628984      0.61597446      0.79819500
Cl     14.22380889     14.63823690      8.72606081      0.06174968     -0.66852535      1.27163138
Cl     12.64651300     14.44932652     14.24309208      0.05793883      1.13288222      0.32586699
Cl     10.65983728     10.60394038      8.15472446      0.04329017      0.54217934      1.09642152
Cl     10.54917903      8.46305991     14.06199488      0.03205126      0.28736483     -0.52807670
O      16.02052948     14.21074529     11.05191474      0.01425607      0.12050372     -0.91110507
25
Lattice="25.1 0.0 0.0 0.0 25.1 0.0 0.0 0.0 25.1" Properties=species:S:1:pos:R:3:forces:R:3 energy=-69.76871215 stress="-6.113569423519078e-05 -1.8051124716549104e-05 -7.190864509212043e-05 -1.8051124716549104e-05 -7.291928273280169e-05 0.00016979350869828896 -7.190864509212043e-05 0.00016979350869828896 -0.000116652164045858" free_energy=-69.90522559 pbc="T T T"
Ag     12.52003276     12.55097610     12.55994909      0.00931834     -0.04483321     -0.45411094
Ag     14.64810913     12.58058736     10.46927532      0.00559187      0.13740577     -0.45480644
Ag     14.58725573     10.50791805     12.59423277      0.00160923     -0.04766849      0.07306911
Ag     14.60629065     14.60374954     12.54402892      0.00748402     -1.75968657      0.51015801
Ag     14.63442224     12.55753993     14.60238976      0.00558937     -0.30447344      0.09997119
Ag     16.64807217     12.57488084     12.56206477      0.00808909      0.05652818      0.56948828
Ag     10.50579803     12.53404359     10.50690179      0.00731259     -0.71641085     -1.36589090
Ag     12.52539128     14.60134712     10.52214900      0.00776444      1.27895911      0.55759345
Ag     12.49722619     10.47930749     10.48267359      0.00638675      0.70392332     -0.49761775
Ag     12.54618016     12.53261599      8.43352850      0.00411486     -0.47472975     -0.67414109
Ag     10.47883813     10.51700271     12.53892647      0.01877714     -0.30561714      0.07624291
Ag     12.51466477     10.49646814     14.59365741      0.00640778     -0.07863021      0.14855242
Ag     12.55024335      8.46027979     12.55737743      0.00736961     -0.22100631      0.10317788
O      16.71557686     12.41590088     14.45751873      0.01275097      0.54307814     -0.41612224
O      11.09505276     14.00445361     11.68442252      0.01685007     -1.13591682      0.76166846
Cl     15.08268946     10.01289580     10.16626076      0.01237095     -0.26689330     -0.28317283
Cl     13.82070449     11.16760751     16.55385226      0.00436842      0.08241025     -0.18812871
O      10.54608359     11.40368829     14.47460172      0.01623307     -0.06381773     -0.25560680
O      14.64996415     12.45366137      8.07595182      0.04618985     -0.04162421     -0.34303334
O      10.60763054      9.59931050     10.59179791      0.04096237     -0.20116710      0.29829118
Cl     14.16697783     14.69118919      8.73444217      0.07562289     -0.40917207      1.14255983
Cl     12.72665799     14.45904515     14.26399712      0.03379953      0.85050281      0.34403751
Cl     10.69266926     10.67036613      8.17307972      0.05027708      0.42097972      1.06205949
Cl     10.56147792      8.41498318     14.07232798      0.00884535      0.28811927     -0.41772942
O      15.97127658     14.09059423     11.26723964      0.01551429      1.70974063     -0.39650925
25
Lattice="25.1 0.0 0.0 0.0 25.1 0.0 0.0 0.0 25.1" Properties=species:S:1:pos:R:3:forces:R:3 energy=-69.5732793 stress="-0.0006204035105091455 -6.40420966502222e-05 6.049216967827571e-05 -6.40420966502222e-05 -0.0004410074212961578 0.00017750670326096424 6.049216967827571e-05 0.00017750670326096424 -0.0006434175275165768" free_energy=-69.7227182 pbc="T T T"
Ag     12.50584505     12.54806434     12.56772373      0.00934341     -0.09430054     -0.28774070
Ag     14.67918198     12.58709899     10.44792944      0.00751863     -0.07565263     -0.53928632
Ag     14.57752529     10.51386297     12.61662814      0.00200407      0.03834632      0.01958652
Ag     14.59287286     14.60995843     12.55744268      0.00871750     -1.93385854      0.68589559
Ag     14.64976644     12.56037032     14.60742668      0.00596682     -0.68825502      0.00827181
Ag     16.64787118     12.58866859     12.55365228      0.01562355      0.81630447     -1.12067909
Ag     10.50375628     12.50968057     10.49825859      0.00892317     -1.17130952     -2.39128420
Ag     12.52637113     14.60872243     10.51647886      0.00971184      2.61676030      1.09248944
Ag     12.47908323     10.46680412     10.46743911      0.00781089      2.42847207     -0.09116568
Ag     12.53758064     12.51594070      8.41839181      0.00653567     -0.82700031     -0.46685809
Ag     10.46265215     10.52723566     12.52953621      0.01150493      0.05130959      0.30899819
Ag     12.49528142     10.49683930     14.59387911      0.00692790      0.43235561      0.07775104
Ag     12.55115399      8.46738515     12.56463845      0.00785790     -0.20224015      0.06605939
O      16.68704750     12.42568407     14.41621314      0.02904803      0.95173597     -0.64089328
O      11.10420941     13.98970494     11.51828245      0.01367528     -2.13570259      1.22506490
Cl     15.12862532      9.92618401     10.11435155      0.01390666     -0.54783169     -0.04724432
Cl     13.82072888     11.15816532     16.62267216      0.00391697     -0.04735862     -0.18034572
O      10.62119216     11.36057834     14.32941414      0.01677220     -0.59817403      0.40115012
O      14.54191698     12.36585590      8.11665431      0.03957499      0.54076877     -0.11231474
O      10.68711831      9.73754798     10.74196637      0.03672161     -1.78184394     -1.02529992
Cl     14.09557078     14.78417055      8.74498404      0.11150047     -0.10449867      0.84990746
Cl     12.82118716     14.47625983     14.28860833      0.01835794      0.44819757      0.33084388
Cl     10.73537783     10.75744480      8.19492481      0.04625292      0.22412590      0.96075606
Cl     10.58100934      8.35422327     14.08791691      0.03014540      0.30505036     -0.40653789
O      16.01438682     13.97241264     11.41765505      0.02318884      1.35459930      1.28287554
25
Lattice="25.1 0.0 0.0 0.0 25.1 0.0 0.0 0.0 25.1" Properties=species:S:1:pos:R:3:forces:R:3 energy=-69.71367617 stress="-0.0006104202790773865 -4.110988710290386e-06 2.915216674218993e-05 -4.110988710290386e-06 -0.00047250170185481717 0.00016638643114570657 2.915216674218993e-05 0.00016638643114570657 -0.0007277551269084154" free_energy=-69.86430906 pbc="T T T"
Ag     12.49859986     12.54564931     12.57243906      0.00926347     -0.17949961     -0.09881544
Ag     14.69582615     12.58693743     10.43389233      0.00822902     -0.03927437     -0.42031083
Ag     14.57194571     10.51736637     12.62700481      0.00203727      0.07840955      0.01508726
Ag     14.57956250     14.61519672     12.56974429      0.00855096     -1.12556415      0.39895379
Ag     14.65533908     12.56089219     14.61154380      0.00607880     -0.61000140     -0.03874113
Ag     16.64946916     12.59214510     12.54658835      0.00177756      1.14147017     -2.04466611
Ag     10.49970087     12.48994274     10.48800943      0.00871205     -0.93363001     -1.84321932
Ag     12.53477852     14.61624690     10.50660341      0.00953157      1.74187361      0.71722958
Ag     12.47731589     10.46084153     10.45756426      0.00796543      2.80094890     -0.04539592
Ag     12.53244311     12.50561484      8.40909925      0.00779100     -1.12751651     -0.22731501
Ag     10.45391606     10.53357992     12.52610801      0.00247660      0.11455625      0.53163074
Ag     12.48618114     10.49744774     14.59563472      0.00719673      0.68878863      0.00613121
Ag     12.55206338      8.47135169     12.56911540      0.00810763     -0.18076350      0.04054029
O      16.69794176     12.41932819     14.44298797      0.00412137      0.83987125     -0.61851557
O      11.06602635     14.01162005     11.51514629      0.00384647     -1.50798874      0.98759107
Cl     15.14829758      9.88124305     10.09217487      0.00455478     -0.65000577      0.00687964
Cl     13.81888714     11.15296571     16.65634968      0.00420217     -0.09886743     -0.16991575
O      10.64818492     11.34167449     14.25813413      0.00787211     -0.84343654      0.89947209
O      14.48362477     12.30987158      8.14682242      0.01299270      1.07589627     -0.04404306
O      10.68985246      9.79222007     10.81005516      0.01506419     -2.06577880     -1.72459413
Cl     14.05864990     14.84538538      8.74920574      0.05601696      0.04104531      0.67295636
Cl     12.86959379     14.48971822     14.30262560      0.00433780      0.23953146      0.29182345
Cl     10.75868183     10.80735301      8.20580098      0.01577263      0.01051391      0.77971327
Cl     10.59424963      8.31940641     14.09690916      0.00752931      0.32367877     -0.40875368
O      16.07129088     13.93929286     11.43294177      0.00472553      0.26574276      2.33627719
25
Lattice="25.1 0.0 0.0 0.0 25.1 0.0 0.0 0.0 25.1" Properties=species:S:1:pos:R:3:forces:R:3 energy=-70.07038387 stress="-0.00013787307037953255 4.822497657057311e-05 -6.698062411272454e-05 4.822497657057311e-05 -0.00013891323659988837 -1.1734929692465527e-05 -6.698062411272454e-05 -1.1734929692465527e-05 -0.0005732722897562831" free_energy=-70.22438826 pbc="T T T"
Ag     12.48343816     12.53993783     12.58236500      0.00894848     -0.38568142      0.35617560
Ag     14.73029331     12.58286413     10.39919974      0.00932728      0.25768404     -0.06760658
Ag     14.55977784     10.52513679     12.64439761      0.00205622      0.14562998      0.02336575
Ag     14.54778900     14.62747061     12.59873921      0.00817347      0.45342665     -0.14202127
Ag     14.66310636     12.55973128     14.62379454      0.00625609     -0.13168809     -0.15008539
Ag     16.65905444     12.58578380     12.54130913      0.00365381      0.58083788     -1.09651788
Ag     10.48709567     12.44145764     10.45771328      0.00795990     -0.30768555      0.13048474
Ag     12.56139717     14.63607399     10.47717245      0.00916012     -0.98377895     -0.20772516
Ag     12.49176639     10.44947683     10.43291565      0.00700122      1.82711743     -0.37425319
Ag     12.51651693     12.48333775      8.38898827      0.01074448     -1.13064786      0.52256423
Ag     10.43564006     10.54921435     12.52584559      0.01109315      0.08885781      0.63049198
Ag     12.47259425     10.49823742     14.60445872      0.00755182      0.79936034     -0.04184879
Ag     12.55427536      8.47996769     12.57947785      0.00828234     -0.15713951      0.00855481
O      16.75836535     12.38666555     14.53269289      0.00781169      0.19431052     -0.39138025
O      10.93059828     14.09836226     11.62746739      0.01009564      0.57091695     -0.28034915
Cl     15.17959315      9.79056906     10.05912485      0.03734347     -0.78988332      0.05959576
Cl     13.81002970     11.14213655     16.71491277      0.00511811     -0.15433636     -0.13240528
O      10.66159608     11.34640078     14.14718293      0.02397499     -0.76594544      1.73679635
O      14.40740396     12.18711790      8.21685680      0.02621379      1.82295519      0.00410900
O      10.60132285      9.83064330     10.89546247      0.02598548     -1.05549991     -2.34388633
Cl     13.98487218     14.98355903      8.75513159      0.09529445      0.37556940      0.39199893
Cl     12.96320360     14.52625676     14.33901086      0.01274732     -0.15418326      0.18857005
Cl     10.80346356     10.91662926      8.22476935      0.02949798     -0.72503558      0.11976505
Cl     10.62961898      8.23954249     14.11412962      0.04142578      0.37022914     -0.30631155
O      16.19086340     13.97018902     11.34005984      0.00897465     -0.74539008      1.36191859
25
Lattice="25.1 0.0 0.0 0.0 25.1 0.0 0.0 0.0 25.1" Properties=species:S:1:pos:R:3:forces:R:3 energy=-70.04027147 stress="0.0003827379154327003 -5.1287098396786194e-05 -0.00011493431973065026 -5.1287098396786194e-05 0.0003624118043303307 4.202501717094086e-05 -0.00011493431973065026 4.202501717094086e-05 0.00025663123819313693" free_energy=-70.22125366 pbc="T T T"
Ag     12.46696185     12.53561381     12.59096095      0.00850326     -0.53466528      0.59884504
Ag     14.76651586     12.57662014     10.35743160      0.01031161      0.63144944      0.36910630
Ag     14.54704080     10.53335086     12.65568000      0.00226589      0.18688344      0.03045541
Ag     14.52130425     14.63809451     12.62383469      0.00837058      1.22473485     -0.29163721
Ag     14.67090367     12.55491772     14.64197961      0.00648348      0.24799205     -0.24082301
Ag     16.67456345     12.56850656     12.55239901      0.00373536     -0.02588638      0.69434354
Ag     10.47294177     12.39511950     10.42313973      0.00809889     -0.15797197      0.92077757
Ag     12.58271003     14.65512764     10.44932741      0.00981275     -2.01799973     -0.47541462
Ag     12.52285944     10.43557097     10.40477156      0.00657606      0.67719055     -0.66266828
Ag     12.49590649     12.46388835      8.36847306      0.00594162      0.58471053      1.29975358
Ag     10.41514889     10.56722439     12.53342919      0.00563681      0.24798454     -0.28455273
Ag     12.46583315     10.49829729     14.62205330      0.00745072      0.29736893      0.12446138
Ag     12.55661979      8.48961937     12.59140161      0.00772082     -0.23348072      0.05727380
O      16.82922140     12.33870671     14.59795773      0.00306604     -0.36786463     -0.20468769
O      10.80263224     14.18713541     11.76825191      0.01251669      1.43770542     -1.06200969
Cl     15.19796108      9.70440461     10.04469476      0.03748817     -0.83446487      0.14022370
Cl     13.79423073     11.13137064     16.75606753      0.00525433     -0.14421737     -0.08936768
O      10.62600403     11.45357337     14.15690302      0.01868925     -0.10696563      0.93204304
O      14.41917659     12.04850591      8.29589791      0.02411090      1.11353007      0.08051281
O      10.44270137      9.75649587     10.82715104      0.03672851     -0.00103289     -0.62879544
Cl     13.91914373     15.14167384      8.75001865      0.06639941      0.55620181      0.27717536
Cl     13.04429358     14.57363835     14.39417309      0.00599951     -0.39055193      0.05995922
Cl     10.82219632     11.02155993      8.23493275      0.03068712     -1.70152148     -0.75739755
Cl     10.67765621      8.14627998     14.13027396      0.02552196      0.39130788     -0.04125478
O      16.26590082     14.08367393     11.16492507      0.00951137     -1.08043663     -0.84632205
25
Lattice="25.1 0.0 0.0 0.0 25.1 0.0 0.0 0.0 25.1" Properties=species:S:1:pos:R:3:forces:R:3 energy=-69.20797187 stress="0.0008491729640397959 -0.00010920737310012308 -0.00017342381382475858 -0.00010920737310012308 0.0008606821008981235 0.00020299234539922705 -0.00017342381382475858 0.00020299234539922705 0.0011177087511774033" free_energy=-69.38343685 pbc="T T T"
Ag     12.43467069     12.53813845     12.60064652      0.00824434     -0.59031873      0.68117567
Ag     14.82851328     12.56906234     10.29209581      0.00484682      0.84781029      0.92437122
Ag     14.52971760     10.54434287     12.65596514      0.00286968      0.19636029      0.07967713
Ag     14.50607921     14.64704972     12.63833243      0.00808285      1.08447144     -0.35462139
Ag     14.69144203     12.54057219     14.68060358      0.00689538      0.26481292     -0.19444001
Ag     16.69946123     12.55303427     12.57889067      0.00480479     -0.25125013      1.05351229
Ag     10.45121598     12.34256503     10.37852670      0.00876558     -0.05890733      0.96543365
Ag     12.58305871     14.67332315     10.43156319      0.00936143     -1.42802500     -0.39071744
Ag     12.58176178     10.40422196     10.36354432      0.00688626      0.06270150     -0.59119491
Ag     12.48377780     12.45317628      8.33766818      0.00975057      2.36779841      1.39664260
Ag     10.38089754     10.58971562     12.53666409      0.00898748     -0.07157516     -0.26179476
Ag     12.45924505     10.50088121     14.66352094      0.00721867     -0.28718509      0.33735894
Ag     12.56002166      8.50718663     12.60894952      0.00728297     -0.32051237      0.09789778
O      16.87655417     12.23828090     14.62505856      0.00343854     -0.57167415     -0.04036406
O      10.75895227     14.21106081     11.84275823      0.01583317      1.43263134     -1.28659455
Cl     15.19502935      9.59604732     10.07668558      0.08077239     -0.81219818      0.10438458
Cl     13.76013045     11.11848087     16.77612091      0.00390036     -0.08646233     -0.05207479
O      10.56635146     11.72116525     14.31221847      0.01948741      0.64021581     -0.83181315
O      14.51902259     11.82139666      8.40902985      0.03915748     -0.19882226      0.30707914
O      10.20365800      9.59999570     10.66923318      0.06576526      0.88660421      0.89648293
Cl     13.84180837     15.42010636      8.69647270      0.03327721      0.06221394     -0.10077969
Cl     13.13637825     14.65617282     14.52250704      0.01253804     -0.10967469     -0.12530691
Cl     10.75380694     11.13597617      8.21593852      0.03065285     -2.22249016     -1.22999371
Cl     10.76785457      7.98362889     14.15738362      0.01986934      0.42697381      0.27501656
O      16.25615287     14.18012509     10.97679868      0.01281217     -1.26349839     -1.65933710
25
Lattice="25.1 0.0 0.0 0.0 25.1 0.0 0.0 0.0 25.1" Properties=species:S:1:pos:R:3:forces:R:3 energy=-69.60920918 stress="0.0010414612960503887 -6.930288368866456e-05 -0.00024532939433589816 -6.930288368866456e-05 0.00100904061949972 0.00017292686486815577 -0.00024532939433589816 0.00017292686486815577 0.001277222419447253" free_energy=-69.77742747 pbc="T T T"
Ag     12.40507589     12.54708007     12.60635412      0.00864596     -0.57789834      0.69595291
Ag     14.87728278     12.57102034     10.25338153      0.00826639      0.65420359      0.96994425
Ag     14.51973445     10.55041526     12.64434970      0.00341069      0.18847672      0.14294371
Ag     14.51157239     14.64744493     12.63120355      0.00746336      0.65888441     -0.40428755
Ag     14.71183785     12.52745096     14.71275445      0.00722504      0.06837671     -0.04340447
Ag     16.71464341     12.55536419     12.59612460      0.00603259     -0.40706583      0.99208692
Ag     10.43632968     12.31702163     10.35616031      0.00938547      0.09395237      0.92946204
Ag     12.56496853     14.67856577     10.43361763      0.00870930     -0.77171290     -0.10526923
Ag     12.62274042     10.37619146     10.33791891      0.00737876     -0.07172138     -0.41472508
Ag     12.50087878     12.45905333      8.31727113      0.00752632      1.71004669      0.64798421
Ag     10.35578422     10.60291915     12.53556835      0.00970075     -0.04835365     -0.20574580
Ag     12.45063125     10.50705248     14.69795206      0.00703703     -0.41713055      0.35561820
Ag     12.56190526      8.52240044     12.61820598      0.00717596     -0.36305661      0.08463716
O      16.85355837     12.15700529     14.59873707      0.00306932     -0.42355084     -0.03689149
O      10.84289763     14.13367460     11.78270435      0.01131699      1.28531651     -1.26391469
Cl     15.17158176      9.53916015     10.13613029      0.05698238     -0.75499312     -0.02889319
Cl     13.73217371     11.11346407     16.76220291      0.00213686     -0.02260119     -0.03202232
O      10.57706073     11.85697086     14.36095566      0.01298650      0.73499816     -1.13504832
O      14.55753019     11.67412089      8.46745980      0.02408587     -0.56423026      0.35322422
O      10.10532124      9.56099775     10.65617561      0.03093672      0.93345332      0.95728769
Cl     13.79536016     15.61692355      8.63938981      0.01276312     -0.38338825     -0.50556006
Cl     13.18884152     14.71406345     14.63462369      0.00521880      0.29241418     -0.28523470
Cl     10.63985262     11.17617875      8.18398301      0.01860589     -1.29917185     -0.60959761
Cl     10.83413556      7.86795738     14.17494076      0.00993575      0.44743748      0.38029179
O      16.15709218     14.13796393     10.95417976      0.00674229     -0.96268537     -1.43883860
25
Lattice="25.1 0.0 0.0 0.0 25.1 0.0 0.0 0.0 25.1" Properties=species:S:1:pos:R:3:forces:R:3 energy=-70.9386464 stress="0.0008471812984777266 -7.569981263329144e-05 -0.000350687229301505 -7.569981263329144e-05 0.0006786642845013357 6.45752588427734e-05 -0.000350687229301505 6.45752588427734e-05 0.000925890816743592" free_energy=-71.09438246 pbc="T T T"
Ag     12.34942927     12.57035027     12.61804286      0.01113317      0.14423999     -0.03916348
Ag     14.95804655     12.58485311     10.19732996      0.01560174     -0.80832589     -1.17702589
Ag     14.50597932     10.56021396     12.61542935      0.00454335      0.21849118      0.26139911
Ag     14.53402397     14.63877300     12.60576852      0.00785180     -0.18243880     -0.32104877
Ag     14.74692454     12.50550861     14.76725566      0.00821279     -0.33611308      0.24476629
Ag     16.73168825     12.57748812     12.61602204      0.00855609     -0.67867141      0.69589087
Ag     10.41563739     12.28834833     10.33027615      0.01129436      0.17422640      0.14601322
Ag     12.52573284     14.68436979     10.43897751      0.01047558      0.82118594      0.72403155
Ag     12.68034382     10.32775319     10.29903377      0.00798621     -0.29266852     -0.19919261
Ag     12.55197266     12.47353125      8.28811396      0.00707229      0.38278158     -0.20072894
Ag     10.31730914     10.62141234     12.53798207      0.01138300      0.28331032      0.04976148
Ag     12.42742538     10.52204475     14.75283849      0.00712263     -0.57739667      0.30472354