62
Lattice="40.7 0.0 0.0 0.0 40.7 0.0 0.0 0.0 40.7" Properties=species:S:1:pos:R:3:forces:R:3 energy=-160.83409123 stress="0.00028207554905796816 -6.030408804227635e-05 5.946217087628596e-06 -6.030408804227635e-05 0.00023972803935200205 -3.094667551399087e-05 5.946217087628596e-06 -3.094667551399087e-05 0.0003084889915277935" free_energy=-161.05536121 pbc="T T T"
Ag     19.32512038     21.37510318     21.37491000      0.01696344     -0.14003103      0.09253047
Ag     21.37499760     21.37499761     19.32502448      0.01697043      0.04028444     -0.06919262
Ag     21.37509529     19.32520104     21.37517579      0.01697068      0.18369815     -0.06374151
Ag     21.37499220     23.42522824     21.37496196      0.00909111     -0.05191227      0.38078641
Ag     21.37502127     21.37502532     23.42514250      0.00908937      0.00118245      0.10570569
Ag     17.27422976     21.37573583     19.32317103      0.00944799     -0.58263185      0.31241243
Ag     19.32472885     23.42519344     19.32491757      0.00869355     -0.13610890      0.04636594
Ag     19.32490325     19.32492305     19.32505011      0.01728621     -0.12578065     -0.06358442
Ag     17.27449423     19.32462066     21.37573120      0.00913587     -0.38829962     -0.10511499
Ag     19.32431228     19.32444836     23.42549387      0.00938589     -0.65731764     -0.36167203
Ag     19.32462422     21.37539272     17.27457610      0.00909885     -0.62337158      0.40373510
Ag     19.32476225     17.27470814     21.37498387      0.00840398      0.02497738     -0.06988461
Ag     23.42507226     21.37517833     21.37509084      0.00908991      0.23249810      0.10134581
Ag     23.42488080     19.32466031     19.32452605      0.00967334     -0.30809755     -0.08565210
Ag     21.37510336     19.32459369     17.27450176      0.00886430      0.01205144     -0.23327699
Ag     21.37509089     17.27460727     19.32488266      0.00840386      0.02042600     -0.15392368
Ag     17.27521058     23.42531649     21.37504768      0.00424534      0.24063055      0.13509089
Ag     17.27474127     21.37453786     23.42538388      0.00502788      0.05735289     -0.44414302
Ag     19.32471351     23.42526032     23.42533027      0.00373292     -0.03380530      0.11656209
Ag     23.42536450     23.42532504     19.32475628      0.00368529      0.20957456      0.06077581
Ag     21.37491786     23.42463330     17.27487790      0.00711167     -0.07685460     -0.36638362
Ag     23.42489591     17.27496866     21.37503720      0.00436635     -0.18640504      0.19202193
Ag     23.42571080     19.32446847     23.42565490      0.00428908      0.60461786     -0.35678919
Ag     21.37494985     17.27520602     23.42508452      0.00791278      0.07177724      0.35496543
Ag     19.32527425     25.47477649     21.37495126      0.00238303      0.23604946     -0.28816504
Ag     21.37526299     25.47460901     19.32479834      0.01004409     -0.05382139     -0.07987172
Ag     25.47511794     19.32497557     21.37517058      0.00260010     -0.20875249      0.07004313
Ag     19.32524189     21.37510084     25.47484784      0.00238428      0.16299745      0.09823130
Ag     21.37488153     19.32512731     25.47476284      0.00241683     -0.07189525      0.12324316
Ag     23.42513011     25.47510220     21.37545967      0.00254667      0.11685261     -0.03814087
Ag     23.42565971     23.42585408     23.42559958      0.00423520      0.23991677      0.32542509
Ag     21.37518421     25.47500520     23.42500190      0.00295918      0.05485469     -0.14146255
Ag     23.42532436     21.37460795     25.47504379      0.00321228      0.33332025     -0.36190527
Ag     21.37508926     23.42469196     25.47481132      0.00165658      0.01660207     -0.29979847
Ag     25.47509572     21.37459556     23.42520398      0.00316501     -0.00064516     -0.41834876
Ag     23.42486741     21.37510210     17.27498748      0.00361635     -0.10292274      0.10282907
Ag     25.47488589     23.42450598     21.37493659      0.00173475     -0.16489733     -0.31174622
Ag     25.47492522     21.37505351     19.32500736      0.00315989     -0.31797684      0.10505121
Ag     15.22504222     21.37486117     21.37474947      0.00477064      0.25316748      0.01811581
Ag     15.22541888     19.32632591     19.32529299      0.00871280      0.45427187      1.16046685
Ag     17.27456197     19.32611294     17.27440561      0.00534721     -0.19595922      0.43152357
Ag     17.27533149     17.27458992     19.32520229      0.00527150      0.45283690     -0.24988354
Ag     19.32574412     17.27426669     17.27379467      0.00516064      0.36157160     -0.46961530
Ag     21.37479324     21.37479695     15.22545894      0.00407427     -0.07269573     -0.09795914
Ag     19.32586350     19.32396936     15.22481502      0.00896537      0.59948857     -0.70786797
Ag     21.37505025     15.22555308     21.37505631      0.01076277     -0.52575167      0.30659539
Ag     19.32509780     15.22537976     19.32509276      0.00791419     -0.01319571      0.26066861
Ag     15.22546507     17.27498543     17.27400404      0.00376710      0.64358689     -0.14179590
Ag     17.27513156     17.27512152     15.22548192      0.00240039     -0.02904242      0.01819283
Ag     17.27528571     15.22533603     17.27511395      0.00168954      0.19113441      0.31184493
Cl     14.63293895     17.02565386     19.61511703      0.00293167     -0.88907897     -0.92202897
Cl     15.05414767     23.70139914     22.47267226      0.00166451     -0.04197684     -0.27631783
Cl     25.75208473     18.42734180     18.91887536      0.00453144      0.44846637      0.03173724
Cl     24.46525009     25.94211953     24.02085641      0.01720838     -0.57127013     -0.38292121
O      16.80104600     19.20999708     23.64489200      0.00172118      1.04353723      0.74418614
O      20.47782612     17.30136487     15.18029535      0.01228195     -1.25623269      1.20805667
O      16.74555673     22.21773159     17.13187072      0.04516874      1.14620868     -1.10847997
O      25.10288976     19.78441016     24.97733891      0.00125279     -0.99014185      1.09992941
O      21.62388576     26.54079944     17.12752166      0.06848894     -0.81365903      1.34971307
O      22.18809577     25.48167259     16.70895975      0.07467302      0.97765846     -1.24994089
O      22.71078883     15.14255067     23.59171609      0.11875080      1.96491473      1.81896073
O      21.80163834     14.28356736     23.40708993      0.08940435     -1.76597604     -1.96750389
62
Lattice="40.7 0.0 0.0 0.0 40.7 0.0 0.0 0.0 40.7" Properties=species:S:1:pos:R:3:forces:R:3 energy=-161.80765067 stress="0.00031895685741864993 -4.5145322345225425e-05 9.060979801809376e-06 -4.5145322345225425e-05 0.00032501524690828896 -1.1048794352748054e-05 9.060979801809376e-06 -1.1048794352748054e-05 0.0003079410744076687" free_energy=-162.02879131 pbc="T T T"
Ag     19.32541947     21.37603221     21.37422001      0.00021338     -0.15798004      0.08679732
Ag     21.37505003     21.37504425     19.32455022      0.00014467      0.04036972     -0.07488960
Ag     21.37594404     19.32611494     21.37666127      0.00014868      0.18836095     -0.07634778
Ag     21.37483094     23.42742302     21.37455537      0.00532695     -0.05026355      0.35892244
Ag     21.37509053     21.37513415     23.42668389      0.00531814      0.00818839      0.10179889
Ag     17.26913930     21.38008816     19.31133585      0.00794848     -0.55903716      0.26117625
Ag     19.32263451     23.42619376     19.32438405      0.00715818     -0.13361643      0.03088234
Ag     19.32398346     19.32416779     19.32532052      0.00027441     -0.13560771     -0.07063874
Ag     17.27089335     19.32216414     21.38081907      0.00762571     -0.32765147     -0.06576576
Ag     19.31923602     19.32045463     23.42907311      0.00789423     -0.56041600     -0.35518507
Ag     19.32133620     21.37825608     17.27166716      0.00748894     -0.67481213      0.46191456
Ag     19.32347556     17.27275028     21.37445299      0.00673209      0.04088335     -0.06484464
Ag     23.42606083     21.37652152     21.37572326      0.00532340      0.21461320      0.09294595
Ag     23.42348308     19.32243104     19.32128077      0.00843331     -0.30498264     -0.08801601
Ag     21.37556612     19.32221718     17.27124695      0.00735740      0.02974663     -0.20933400
Ag     21.37545213     17.27187872     19.32454616      0.00672808      0.01981264     -0.13629375
Ag     17.27738878     23.42738931     21.37534938      0.00418861      0.23482991      0.11721802
Ag     17.27325836     21.37138392     23.42801528      0.00469979      0.15841273     -0.05857639
Ag     19.32281390     23.42694052     23.42753942      0.00346039     -0.04478919      0.11511741
Ag     23.42797647     23.42734988     19.32335375      0.00340656      0.19173529      0.05717008
Ag     21.37421149     23.42109748     17.27438012      0.00538961     -0.05099051     -0.17884048
Ag     23.42358421     17.27521858     21.37527834      0.00429588     -0.18705047      0.15875171
Ag     23.43073281     19.32054534     23.43023745      0.00382005      0.41600073     -0.38854839
Ag     21.37472240     17.27821628     23.42519917      0.00576551      0.15482553      0.11821490
Ag     19.32755164     25.47253637     21.37452874      0.00233347      0.23208484     -0.28086462
Ag     21.37603976     25.47246223     19.32578702      0.00058651      0.00796310      0.03122105
Ag     25.47552676     19.32490792     21.37645962      0.00262026     -0.21343426      0.07007191
Ag     19.32731005     21.37590863     25.47321733      0.00232584      0.16037776      0.11486201
Ag     21.37387773     19.32624435     25.47242958      0.00239122     -0.08143881      0.14579570
Ag     23.42578408     25.47536550     21.37861238      0.00247669      0.10133822     -0.05099123
Ag     23.43004400     23.43124515     23.42969700      0.00419722      0.20959271      0.27516482
Ag     21.37633621     25.47457450     23.42480763      0.00298446      0.04355260     -0.14015756
Ag     23.42767809     21.37162478     25.47510378      0.00290805      0.16665201     -0.19736046
Ag     21.37581381     23.42213957     25.47294898      0.00165265      0.02631792     -0.31047362
Ag     25.47560973     21.37170915     23.42641923      0.00292718      0.06646546     -0.16234587
Ag     23.42339094     21.37587432     17.27535387      0.00353900     -0.08309420      0.08388047
Ag     25.47345767     23.42086075     21.37485616      0.00174572     -0.14144768     -0.31372248
Ag     25.47383834     21.37550133     19.32521508      0.00313093     -0.31107340      0.09705801
Ag     15.22574586     21.37392881     21.37282697      0.00450500      0.25807395      0.04246658
Ag     15.22902284     19.33636893     19.32767009      0.00844254      0.39469056      0.85724663
Ag     17.27175235     19.33351827     17.27029986      0.00524203     -0.24872034      0.48353754
Ag     17.27827215     17.27171788     19.32627938      0.00509092      0.36326108     -0.21169222
Ag     19.33072970     17.26904216     17.26532485      0.00499866      0.21262158     -0.47694822
Ag     21.37326221     21.37330752     15.22945238      0.00370285     -0.08817461     -0.08673488
Ag     19.33193844     19.31696759     15.22400141      0.00874433      0.46229635     -0.40038430
Ag     21.37262698     15.22998795     21.37173028      0.00093511     -0.36004426      0.16710084
Ag     19.32584185     15.22880887     19.32583128      0.00782692     -0.01896248      0.25536832
Ag     15.22936032     17.27477788     17.26627648      0.00358144      0.59106770     -0.12914028
Ag     17.27604534     17.27598565     15.22954900      0.00242738     -0.06907668      0.03054110
Ag     17.27742147     15.22818283     17.27590546      0.00164527      0.18945505      0.29404553
Cl     14.61344499     17.00055027     19.63467623      0.00280657     -0.68885710     -0.64474204
Cl     15.05362889     23.69461949     22.47081671      0.00163577     -0.05034752     -0.26910112
Cl     25.75494862     18.43306160     18.92236045      0.00430144      0.45975643      0.02851479
Cl     24.44445857     25.92630878     24.00234849      0.00276953     -0.53327447     -0.33048549
O      16.86470097     19.25491499     23.58903334      0.00170557      0.79849981      0.30059072
O      20.39742689     17.38405218     15.26263928      0.00648881     -0.93709229      0.88903894
O      16.80533677     22.13015359     17.21532490      0.00829727      1.22898143     -1.18858725
O      25.04424711     19.84683775     24.92584266      0.00184115     -0.69082711      0.75499222
O      21.60101438     26.59669964     17.14131893      0.06349376      0.79844206     -1.92715944
O      22.21418702     25.44278798     16.70486507      0.05581697     -0.71489506      1.73831027
O      22.74880026     15.17856604     23.60179883      0.06772850     -1.20883080     -0.85075601
O      21.76634528     14.22902760     23.40319071      0.09424140      1.15751868      1.11821040
62
Lattice="40.7 0.0 0.0 0.0 40.7 0.0 0.0 0.0 40.7" Properties=species:S:1:pos:R:3:forces:R:3 energy=-161.99210154 stress="-0.00011508165679507586 -6.98706612908279e-05 -5.191712256946198e-06 -6.98706612908279e-05 -0.00018531368898127415 -9.859058480152302e-05 -5.191712256946198e-06 -9.859058480152302e-05 -0.00023133633657376109" free_energy=-162.15715129 pbc="T T T"
Ag     19.33922656     21.41638142     21.34947929      0.00462877      0.00538486     -0.16016361
Ag     21.36948908     21.33821873     19.27454042      0.00404174     -0.10067432     -0.12644357
Ag     21.41385621     19.36704698     21.45010663      0.00339755     -0.03154780     -0.03026659
Ag     21.38021888     23.47746610     21.35643963      0.00558688      0.33578438     -0.72803804
Ag     21.39712842     21.38796675     23.44293217      0.00638099      0.05119379      0.07699950
Ag     17.18641967     21.42078647     19.47797524      0.00804337      0.58043146     -0.10772275
Ag     19.25953679     23.44328169     19.31946742      0.00726275      0.06370263     -0.17276044
Ag     19.28143293     19.28451143     19.30837381      0.00654462     -0.13319724      0.23192903
Ag     17.17556473     19.19915120     21.32389835      0.00892795      0.29239149     -0.04170785
Ag     19.39640399     19.12137747     23.56962615      0.00773055     -0.75704020      0.16140300
Ag     19.46020913     21.55205411     17.15628016      0.00828109     -2.12825993     -0.26397399
Ag     19.27058796     17.25264791     21.35613886      0.00733362     -0.10641060      0.46275360
Ag     23.43383189     21.42227029     21.41576859      0.00577949     -0.49355006     -0.27513334
Ag     23.32445547     19.22161723     19.18264070      0.00860741      0.21514629      0.15617771
Ag     21.37509828     19.17719686     17.18296178      0.00902102      2.70688097      3.15865720
Ag     21.38671031     17.22798351     19.30475335      0.00822098      0.06377659      0.33030923
Ag     17.40139030     23.52874992     21.40361243      0.00426292     -0.52512685     -0.17689158
Ag     17.27572969     21.50533594     23.52368105      0.00486331      0.28702157      0.55680209
Ag     19.27170667     23.52395479     23.51942001      0.00397215     -0.00551330      0.03855135
Ag     23.53804346     23.50988376     19.28472736      0.00382533     -0.07264588     -0.13848673
Ag     21.38999943     23.38928371     17.28274393      0.00759866      0.26052608      0.50558678
Ag     23.33121278     17.30784356     21.37434642      0.00439046      0.19888879      0.01156484
Ag     23.50187107     19.08208879     23.47621366      0.00361063      0.13042727      0.05192878
Ag     21.40833140     17.30852732     23.42782069      0.00618294     -0.05505516     -0.45078602
Ag     19.45182285     25.34820641     21.37379782      0.00346971     -0.27983684      0.52947524
Ag     21.39653389     25.36550249     19.45232193      0.00563231      0.00235877     -0.02706159
Ag     25.43819913     19.32057705     21.43520798      0.00358525     -0.35844835     -0.06183172
Ag     19.44428582     21.42519334     25.37332511      0.00350856     -0.47220372     -0.13112438
Ag     21.33765795     19.38265298     25.34117679      0.00360464      0.37086671     -0.09384939
Ag     23.39658470     25.44788314     21.28455588      0.00274254      0.37589158     -0.00886684
Ag     23.55587424     23.37616752     23.60903975      0.00465815     -0.05397129      0.46946175
Ag     21.35201965     25.42602717     23.42807948      0.00276678      0.18459471      0.00587263
Ag     23.26606997     21.46760426     25.58650656      0.00402644      0.04052421     -0.16204718
Ag     21.39439056     23.30608896     25.37637187      0.00357388     -0.25118601      0.72624500
Ag     25.58201283     21.44763087     23.24305784      0.00450356      0.41844332      0.28213590
Ag     23.32303886     21.39504322     17.32479213      0.00369959      0.42807529      0.00188682
Ag     25.40190593     23.25946371     21.34910352      0.00317562      0.36172770      0.74762220
Ag     25.37390630     21.38811069     19.33437945      0.00260181     -0.14322036     -0.15839507
Ag     15.24579084     21.34127286     21.28059573      0.00621736     -0.19603793     -0.00363030
Ag     15.29461354     19.39096956     19.42436719      0.00809410     -0.28114833     -0.27403238
Ag     17.08493947     19.33965233     17.12020967      0.00627115      0.11677327      1.35940467
Ag     17.26172090     17.19657996     19.32026242      0.00526756     -0.09281736      0.34548187
Ag     19.34968794     17.04219231     17.34118401      0.00615490     -0.28030235      0.01862352
Ag     21.36820894     21.33659543     15.39918006      0.00539580      0.60849069      0.26216845
Ag     19.30379359     19.52672747     15.15453949      0.00939510     -1.18939579      0.47058150
Ag     21.22571351     15.39247076     21.24348073      0.00792906      0.65123098     -0.60960762
Ag     19.32774854     15.33619125     19.37673789      0.00938231     -0.37337600     -0.71330145
Ag     15.34024630     17.24338343     17.21316121      0.00366659     -0.38520680     -0.13929415
Ag     17.33948712     17.31986175     15.41345201      0.00254006     -0.11754986     -0.16019226
Ag     17.34500148     15.31795988     17.32732563      0.00214704     -0.05661525     -0.70481326
Cl     14.49676188     16.88059066     19.57732213      0.00262726     -0.14288426     -0.03617677
Cl     15.00403864     23.42503963     22.47422716      0.00196864      0.09046937      0.23637649
Cl     25.98445395     18.81661686     19.06344262      0.00218392      0.35250873     -0.09314341
Cl     23.93352276     26.10810278     23.70827350      0.00338963     -0.07445019      0.04547351
O      17.27079894     19.41436725     23.34806989      0.00501707     -0.17872139     -0.56299086
O      20.53521819     18.06513601     16.00742061      0.00611762     -1.64434239     -3.37664766
O      17.07941723     21.26373176     16.15411497      0.01076667      1.55605364     -0.96022682
O      24.72653508     20.31155648     24.66301774      0.00277270      0.43768122     -0.78778087
O      21.77573595     26.21249004     17.42004649      0.06184450     -1.06307710      1.46149973
O      22.33969272     25.81674306     16.37737762      0.02435574      0.99983054     -1.05876148
O      22.18793092     15.09283828     24.16587795      0.01679772     -0.63275048      1.52873679
O      22.49751359     14.46026598     23.13031758      0.01763619      0.48948653     -1.43755922
62
Lattice="40.7 0.0 0.0 0.0 40.7 0.0 0.0 0.0 40.7" Properties=species:S:1:pos:R:3:forces:R:3 energy=-162.33337387 stress="-0.0001216602261382842 -5.097947313649879e-05 -8.447102413242255e-06 -5.097947313649879e-05 -0.000219544952431252 8.317410095115527e-06 -8.447102413242255e-06 8.317410095115527e-06 -0.00015224774649264439" free_energy=-162.50076464 pbc="T T T"
Ag     19.34399586     21.41613443     21.35078177      0.00502688      0.00130757     -0.12145615
Ag     21.36463117     21.32930002     19.27396835      0.00424462     -0.13201180     -0.03774573
Ag     21.41517076     19.37459640     21.45561874      0.00369867     -0.04662089     -0.10740656
Ag     21.38746733     23.46613250     21.35971517      0.00558068      0.32352487     -0.70290513
Ag     21.40269425     21.39035793     23.42916316      0.00642291      0.00413449      0.06873352
Ag     17.20448880     21.42168275     19.46636590      0.00785062      0.41177555     -0.16377674
Ag     19.25384849     23.43926698     19.31347875      0.00730455      0.09130313     -0.14628534
Ag     19.27425064     19.28711907     19.29789866      0.00665382     -0.14505481      0.17405101
Ag     17.17668087     19.18199428     21.33804215      0.00912685      0.13170244     -0.17300275
Ag     19.38297342     19.10137328     23.57612058      0.00787007     -0.07018206      0.02787901
Ag     19.43052118     21.56735182     17.15842728      0.00793897     -1.70209302     -0.27200548
Ag     19.25788839     17.26517979     21.36156579      0.00746487     -0.01373325      0.35879850
Ag     23.42198013     21.42044444     21.42044265      0.00577105     -0.40920790     -0.25083493
Ag     23.31659807     19.20891012     19.16827968      0.00861051      0.37306687      0.16444217
Ag     21.40132613     19.18259488     17.21218893      0.00713035      0.77624905      0.82545070
Ag     21.38957192     17.23687416     19.29408665      0.00834479     -0.02448535      0.20693118
Ag     17.40840321     23.54368755     21.41099124      0.00418279     -0.57444709     -0.24950642
Ag     17.27834696     21.50610316     23.53299309      0.00515166      0.14889608      2.01104968
Ag     19.26772970     23.53914085     23.53113230      0.00410759     -0.03211840      0.01576689
Ag     23.54920548     23.52029439     19.27583633      0.00396484     -0.07753755     -0.21450173
Ag     21.40354748     23.40963404     17.28516646      0.00715521      0.18823925      0.55834796
Ag     23.32162301     17.30799976     21.37091399      0.00443642      0.23245241      0.00346673
Ag     23.52262289     19.06426876     23.49223399      0.00367262     -0.05458827     -0.14295065
Ag     21.41192109     17.29508471     23.42914874      0.00601705     -0.09485637     -0.45847870
Ag     19.46359018     25.34149948     21.37783005      0.00355471     -0.29508825      0.53726890
Ag     21.39792407     25.35624194     19.46250184      0.00625157     -0.08176784     -0.01580122
Ag     25.42771177     19.31829736     21.44534943      0.00362749     -0.35643470     -0.11221620
Ag     19.45227696     21.42768270     25.36283851      0.00362029     -0.45973927     -0.14084442
Ag     21.34419889     19.38661351     25.33617407      0.00362598      0.32532475     -0.11145196
Ag     23.39290902     25.44116234     21.25450177      0.00291498      0.49084960      0.07002973
Ag     23.57108998     23.35614928     23.62805079      0.00457372     -0.06553839      0.64723758
Ag     21.34615431     25.42055390     23.43253797      0.00277077      0.34622941      0.05419638
Ag     23.25601931     21.46603419     25.60238637      0.00412820     -0.39532491      0.13832254
Ag     21.38976765     23.30708140     25.37107316      0.00368973     -0.23350722      0.74502216
Ag     25.59643073     21.44556354     23.23126869      0.00454054      0.68577753      0.51433522
Ag     23.31608371     21.39331943     17.33274276      0.00380620      0.45510388      0.00802505
Ag     25.39984034     23.25293122     21.33671055      0.00322072      0.34764045      0.77957585
Ag     25.36017486     21.38503784     19.33122291      0.00261741     -0.13326240     -0.12173222
Ag     15.23704650     21.33433753     21.27816302      0.00619668     -0.09494282     -0.00624966
Ag     15.28895650     19.36663283     19.42213580      0.00808608     -0.13678835      0.10169284
Ag     17.06195168     19.36462782     17.10540285      0.00646150     -0.01572209     -0.30625960
Ag     17.24231196     17.19626745     19.32081555      0.00545148      0.18861992      0.31939535
Ag     19.36802593     17.03749729     17.32404995      0.00621180     -0.78196073     -0.61005822
Ag     21.38873014     21.33951977     15.39649953      0.00509716      0.39584427      0.17876657
Ag     19.28938578     19.53910490     15.15151934      0.00968356     -1.26819262      0.86371750
Ag     21.22271976     15.40038115     21.25010413      0.00816456      0.69874029     -0.61790022
Ag     19.32014857     15.32895363     19.38632208      0.00912317     -0.36105520     -0.54989516
Ag     15.33303615     17.23372062     17.23139173      0.00386625     -0.12048711     -0.10373020
Ag     17.35506015     17.32169770     15.41645275      0.00270983     -0.23582196     -0.19627775
Ag     17.34661547     15.30723984     17.33372049      0.00213170     -0.03528771     -0.59600757
Cl     14.53079866     16.93230566     19.50676635      0.00214390     -0.60057551     -0.35941056
Cl     15.00327034     23.40937577     22.49479485      0.00197052      0.12390865      0.21093439
Cl     26.01878298     18.88100742     19.06715952      0.00241726      0.34185913     -0.14376189
Cl     23.88997994     26.20541719     23.72935089      0.00280162     -0.21028773     -0.15976704
O      17.36112503     19.54566988     23.28347616      0.00441009     -0.59227135     -1.69411994
O      20.36651610     17.99894222     15.93430300      0.00360945      0.85043219     -0.76144188
O      17.22447303     21.09423550     16.18177147      0.00696349      1.49096913      0.76260342
O      24.65755139     20.38914593     24.62068428      0.00273879      0.76690117     -1.16790565
O      21.81341154     26.17235253     17.49694596      0.07842969      0.85403755      0.09842975
O      22.34562152     25.81688204     16.28413346      0.02843096     -0.96790284      0.11512222
O      22.06888020     15.10778861     24.15786122      0.01448935      0.31697775     -0.04311107
O      22.61677496     14.49167712     23.11905139      0.01395637     -0.54297161      0.29920595
62
Lattice="40.7 0.0 0.0 0.0 40.7 0.0 0.0 0.0 40.7" Properties=species:S:1:pos:R:3:forces:R:3 energy=-161.86000665 stress="0.00019188705290587148 -1.5123008091268738e-05 -5.619847327134335e-05 -1.5123008091268738e-05 0.0001494479865025378 -5.094184931948796e-05 -5.619847327134335e-05 -5.094184931948796e-05 0.00025516626237865524" free_energy=-162.08711565 pbc="T T T"
Ag     19.36114466     21.39079924     21.38004673      0.00694498     -0.50032272     -0.08755340
Ag     21.28981817     21.29565815     19.29055856      0.00611087      0.12066017      0.28657247
Ag     21.39350362     19.37678236     21.46614774      0.00576919     -0.02403924     -0.53382180
Ag     21.46314267     23.31911442     21.42243241      0.00599185     -0.13043915      0.74717499
Ag     21.42851011     21.41110147     23.33308226      0.00740379     -0.14668915     -0.08253697
Ag     17.35913222     21.36167897     19.29794323      0.00755552     -0.77538001     -0.10354709
Ag     19.24915638     23.41634953     19.27446555      0.00831990      0.16683152      0.71629525
Ag     19.21320848     19.31519123     19.19474475      0.00537127     -0.00207184     -0.29568513
Ag     17.20171581     19.12444927     21.35533362      0.00821480     -0.22712083      0.69987659
Ag     19.35884694     18.99692928     23.59314542      0.00810186     -1.20513540      0.59593277
Ag     19.21393499     21.68970203     17.35072719      0.00740979     -0.10396438     -0.83505466
Ag     19.20493124     17.35515717     21.38884885      0.00826314      0.58197620     -0.47109762
Ag     23.34379315     21.36720386     21.41957375      0.00670195      0.82349251     -0.12041267
Ag     23.40110110     19.15566977     19.17931750      0.00815870      0.51824029      0.17216819
Ag     21.48658228     19.25164307     17.32909222      0.00712840     -0.78586299      0.08165826
Ag     21.35628776     17.29298687     19.24664476      0.00829801     -0.27253679     -0.41283140
Ag     17.37162615     23.60300453     21.46522293      0.00383380     -0.15580256     -0.31027589
Ag     17.26916676     21.72690202     23.58623442      0.00522457     -0.06141813     -1.15981039
Ag     19.24634403     23.63828575     23.59396306      0.00500144      0.14613048     -0.03335128
Ag     23.59834474     23.54682330     19.18288594      0.00465086     -0.15044646     -0.07761038
Ag     21.48804094     23.56662266     17.29620567      0.00576881     -0.40015256     -0.91618641
Ag     23.31186715     17.32255080     21.31842722      0.00459240      0.08680809     -0.07516469
Ag     23.63340329     18.97643606     23.59375195      0.00410867      0.26758102      0.60378415
Ag     21.40625907     17.20109474     23.45396797      0.00568245     -0.12540549      0.12741912
Ag     19.48819567     25.36780167     21.41656041      0.00312151     -0.03385564      0.03587721
Ag     21.37604185     25.30857620     19.40478230      0.00657640      0.12046145      0.33241504
Ag     25.32309606     19.26827623     21.48205346      0.00374345      0.00471988     -0.07828573
Ag     19.44876561     21.39584444     25.32489205      0.00346499     -0.08288689     -0.11387276
Ag     21.43704833     19.36334356     25.35235135      0.00398581     -0.04407328     -0.12367800
Ag     23.46399377     25.42780204     21.23286668      0.00278382      0.04034254      0.04692997
Ag     23.67423688     23.35044307     23.67419532      0.00468325     -0.20916546      0.04934904
Ag     21.39170363     25.41134814     23.48581634      0.00427690     -0.41647182     -0.20816364
Ag     23.17257434     21.44041538     25.78047619      0.00400356      0.84217194     -0.35578559
Ag     21.33344342     23.43854730     25.38403666      0.00326203      0.18560259     -0.20740962
Ag     25.73287520     21.43052238     23.17739055      0.00403387     -0.66858657     -0.34105897
Ag     23.32911695     21.37279492     17.37632883      0.00466055      0.10205146      0.19282527