38
Lattice="29.7 0.0 0.0 0.0 29.7 0.0 0.0 0.0 29.7" Properties=species:S:1:pos:R:3:forces:R:3 energy=-106.50613399 stress="0.0004261900661482927 0.00010190862098491558 0.00010139193637645671 0.00010190862098491558 0.0004542050861013288 0.0001713603022511412 0.00010139193637645671 0.0001713603022511412 0.00041926606048251234" free_energy=-106.60678545 pbc="T T T"
Ag     15.28307609     16.08991959     12.84877130      0.01332150     -0.35385503     -0.88836109
Ag     17.28898609     14.68072524     13.91268933      0.00951857      0.60458850     -0.41404902
Ag     16.07119950     11.73256881     13.74969179      0.00851333      0.21150028     -1.13775380
Ag     16.30919463     18.54983455     15.43961186      0.01039622     -0.81255229      0.01658319
Ag     15.70982578     15.79427988     15.86459455      0.01013958      0.15143759      0.18877700
Ag     11.74248216     14.26925528     13.16458310      0.00689240      0.49184471      0.49754102
Ag     12.75163039     16.96993147     12.43141723      0.00811869     -0.22374864     -0.22255195
Ag     13.39921579     12.06830644     12.46155409      0.01050211     -0.66886733     -0.98209220
Ag     10.80112714     12.86821730     15.21603872      0.00911156     -0.03491133     -0.15600490
Ag     14.19123182     13.74797785     14.53750043      0.00979615      0.72843211      1.37694403
Ag     13.10080604     13.82434082     10.69473553      0.00851228      0.04220270      1.35217310
Ag     13.60611171     11.39233539     15.33491018      0.01194439     -0.73896108     -1.06277812
Ag     16.60796895     12.96182735     16.21021282      0.00933651      0.43957986     -0.84339396
Ag     19.08774206     12.36465023     14.71642291      0.00960676     -0.74982087     -0.92681715
Ag     18.05552838     12.64642186     12.36189561      0.00812099      1.57939913      0.48244383
Ag     15.71675764     12.99617079     11.36332182      0.00817438     -0.97419800      0.44269185
Ag     12.89414175     16.05871876     15.31375777      0.00751829      0.07083378      0.58852295
Ag     11.96278574     14.90389344     17.56560838      0.00971605     -0.21876178      0.04906546
Ag     13.86584897     17.37001869     17.58408220      0.01473623      1.06254278      1.82391398
Ag     14.69171069     13.94894810     17.74096778      0.00803740     -0.59154266     -0.08662736
Ag     17.77882354     17.39267258     13.49859502      0.01052912      0.49220781     -0.60567624
Ag     17.42351737     14.98650357     10.63248301      0.00973799      0.32319761      0.40071261
Ag     14.60760689     16.79838694     10.22424890      0.01297769     -0.91875121     -0.66349067
Ag     13.38083151     19.03989708     14.59083516      0.01255034      0.51375904     -0.82628456
Ag     15.50438951     18.65542639     12.51597732      0.01166079     -0.24514849      0.76607549
O      14.46816152     19.21791406     16.67378062      0.25080938     -0.30447793     -1.40525919
Cl     14.90929737     11.19837322     17.45302653      0.03128014     -0.26374702      0.65284729
Cl     16.81431885     17.66598245     10.26400676      0.02661658      0.18536615      0.12935419
O      12.63986835     15.86649948     10.37671480      0.00309855      0.82289956      0.77224438
O      13.62493484     15.68774063     18.55481478      0.00397521     -0.25199486     -1.27705913
Cl      9.82935501     14.13544557     16.91746354      0.00238846     -0.24733266      0.11397291
O      11.82018740     11.57133539     14.07874638      0.00724059      0.81945448     -0.08049461
Cl     14.88534684     10.17401484     12.10792331      0.00632357      0.29678539     -0.46160894
Cl     18.61943055     16.60136568     15.90151998      0.04850599     -0.53381098      0.27691016
O      15.38441865     21.06184030     14.81247634      0.99999359      0.15469755     -0.14154434
O      15.43426656     20.95133114     13.49049164      0.99993966     -0.02204894      0.27657954
O      18.88455183     15.18258602     12.41639956      0.01455304     -1.14383567     -0.39350149
O      17.55807175     10.68915139     15.54178291      0.05107042      0.30763773      2.36799572
38
Lattice="29.7 0.0 0.0 0.0 29.7 0.0 0.0 0.0 29.7" Properties=species:S:1:pos:R:3:forces:R:3 energy=-107.07128862 stress="0.0003341327560582515 0.00017593586521019844 0.00011083391661983738 0.00017593586521019844 0.0003773035083349033 8.527369468902939e-05 0.00011083391661983738 8.527369468902939e-05 0.00026562941593012164" free_energy=-107.17443873 pbc="T T T"
Ag     15.33622149     16.05886734     12.89959220      0.00252453     -0.76221419     -0.44563160
Ag     17.31884400     14.65816135     13.91553404      0.00954811      0.54696520     -0.44851826
Ag     16.09511301     11.71736544     13.79148452      0.00735212     -0.13500193     -1.17750360
Ag     16.31390294     18.56125916     15.42863377      0.00129571     -0.74200360     -0.06476220
Ag     15.71888242     15.79482358     15.85680991      0.00171604      0.10208939      0.11477053
Ag     11.79254117     14.24899497     13.16928951      0.00679135      0.26170105      0.63408155
Ag     12.73000082     16.96392602     12.47795636      0.00775825      0.00559230     -0.25586941
Ag     13.40977586     12.10230392     12.44619865      0.00250440     -0.57226596     -1.44208125
Ag     10.84267658     12.85024510     15.20422988      0.00965074     -1.33687188      1.34757731
Ag     14.17382715     13.74717384     14.55824392      0.00877893      0.91323898      1.54342220
Ag     13.11559209     13.84982724     10.70494965      0.00888363     -0.08049486      1.83220192
Ag     13.59816621     11.41236247     15.33557953      0.00319159     -1.02937865     -1.21574713
Ag     16.65590346     12.93164831     16.21479410      0.00862723      0.01902285     -0.32913321
Ag     19.06526032     12.37455315     14.72612463      0.00885901     -0.60125271     -0.74563088
Ag     18.03385728     12.63362281     12.33559506      0.00803215      1.61473975      0.43602542
Ag     15.69161721     12.96567358     11.35713858      0.00861384     -0.80872549      0.39385536
Ag     12.84704187     16.06426546     15.30232253      0.00659608      0.12171731      0.53788079
Ag     11.97175475     14.90690223     17.56297162      0.00904944     -1.01024987     -0.31843871
Ag     13.82917629     17.36638994     17.52884140      0.00434632      0.95845302      0.83716440
Ag     14.68575673     13.99076176     17.70831090      0.00784923     -0.13601169     -0.62804535
Ag     17.79944774     17.39166991     13.47499554      0.00207143      0.37159961     -0.46865497
Ag     17.39839073     14.97913964     10.64833867      0.00922862      0.19161831      0.36395856
Ag     14.61050420     16.80150980     10.23023677      0.00284548     -1.30113323     -0.73088029
Ag     13.36405790     19.05169716     14.60950389      0.00170455      0.46714346     -0.87827928
Ag     15.51805577     18.67627810     12.52317917      0.00174977     -0.28727856      0.45862115
O      14.49896034     19.22826880     16.61457508      0.02650707     -0.39266316     -1.37635256
Cl     14.82347872     11.18787707     17.39316774      0.02312980     -0.07382513      0.52976710
Cl     16.78793672     17.68160910     10.27755027      0.00368839      0.35388171      0.16319412
O      12.55809011     15.93015729     10.42986960      0.00283516      1.14180211      0.45813538
O      13.62020372     15.57575153     18.57491267      0.00364006     -0.08741131      0.47313468
Cl      9.75946222     14.09755789     16.92762531      0.00111664      0.41662024      0.09764642
O      11.77502941     11.65009740     14.09670659      0.01273350      1.91718597     -1.41713834
Cl     14.81656256     10.13227998     12.04392536      0.00513718      0.33144381     -0.13664808
Cl     18.52360356     16.58677256     15.82931885      0.01777626     -0.28409456      0.28694744
O      15.41232589     21.06579092     14.77731749      0.05880622      0.10213052     -0.02752496
O      15.42828675     20.94429862     13.47230955      0.05916687      0.04290543      0.26271350
O      18.83383676     15.12561446     12.38014643      0.00478531     -0.82392068     -0.39372743
O      17.46984703     10.92190557     15.51881852      0.01942461      0.58494645      1.72946966
38
Lattice="29.7 0.0 0.0 0.0 29.7 0.0 0.0 0.0 29.7" Properties=species:S:1:pos:R:3:forces:R:3 energy=-107.51115832 stress="0.00013097518542944402 0.0001890464359970269 6.34689513502106e-05 0.0001890464359970269 0.00016263265024419961 6.421240246823105e-05 6.34689513502106e-05 6.421240246823105e-05 -1.900791685800138e-05" free_energy=-107.61678057 pbc="T T T"
Ag     15.38228112     16.02291537     12.95289262      0.00497051     -1.07563047     -0.03756560
Ag     17.35245478     14.63043306     13.92407505      0.00986562      0.39204062     -0.51428216
Ag     16.11731762     11.69306686     13.84014427      0.00692930     -0.96420518     -0.90282335
Ag     16.31056306     18.57388245     15.42289575      0.00276263     -0.51772937     -0.21617140
Ag     15.72683675     15.79512328     15.85019538      0.00371867      0.03580786      0.06463664
Ag     11.84556032     14.23343355     13.17198664      0.00695582      0.03428152      0.73712869
Ag     12.70799130     16.95551665     12.52451770      0.00758464      0.16637464     -0.18023250
Ag     13.41448273     12.12496326     12.43994198      0.00435009     -0.43472059     -1.65956273
Ag     10.87401495     12.84500790     15.21083945      0.00841405     -0.90322659      0.63418636
Ag     14.16415529     13.75934813     14.57688256      0.00859037      1.02768910      1.48243998
Ag     13.12991031     13.89054548     10.70840748      0.00891375     -0.10652012      1.94736831
Ag     13.58279451     11.42250215     15.34057680      0.00622170     -1.37849181     -1.22258207
Ag     16.70434907     12.90008247     16.21821868      0.00926445     -1.14620036      2.08130039
Ag     19.03966777     12.37901162     14.74195760      0.00899844      0.27233709     -0.12512605
Ag     18.02681438     12.62592140     12.30028286      0.00770519      1.44656764      0.32670253
Ag     15.65981237     12.93930528     11.34622803      0.00899325     -0.54458544      0.31720592
Ag     12.80118800     16.07462823     15.28195369      0.00641805      0.13455600      0.45000249
Ag     11.97176046     14.90720295     17.56326663      0.00865340     -1.41038202     -0.48610989
Ag     13.80103283     17.37039327     17.46859036      0.00606731      0.80042057     -0.04470157
Ag     14.67961389     14.02863267     17.67400697      0.00812576      0.31183338     -1.07156809
Ag     17.82437020     17.38641877     13.44855521      0.00421067      0.18940119     -0.26544002
Ag     17.37442129     14.97493750     10.66871937      0.00892889     -0.16690942      0.35285600
Ag     14.60217082     16.79887869     10.23806134      0.00464551     -1.20986420     -0.60271326
Ag     13.35064026     19.05550275     14.63234763      0.00374233      0.29512831     -0.92667836
Ag     15.52931045     18.70381682     12.53210791      0.00360069     -0.29824279      0.12012268
O      14.50046351     19.14105296     16.54454137      0.06265840     -0.35659663     -0.74489068
Cl     14.73068337     11.19257897     17.33863408      0.01788390      0.23080443      0.33266019
Cl     16.77517133     17.70124306     10.28198735      0.00589573      0.32022713      0.12680921
O      12.54805331     16.01682847     10.50198241      0.00311135      1.10712236      0.15406872
O      13.61139305     15.48738682     18.60473241      0.00328741     -0.18736303      1.50845284
Cl      9.69868345     14.06255374     16.93386019      0.00159100      0.77773111      0.10099910
O      11.83142522     11.63004815     14.01880526      0.00533142      1.19786508     -0.56308020
Cl     14.75448360     10.08846104     11.98106547      0.00716355      0.39799179      0.08691655
Cl     18.42406687     16.58047135     15.76200314      0.00779045      0.03475028      0.29981160
O      15.47216161     21.06799722     14.71492319      0.05431213      0.07965994      0.13524700
O      15.41004822     20.94194706     13.43778351      0.01559614      0.07651987      0.18070874
O      18.73883796     15.05738239     12.31856173      0.00810416     -0.16237964     -0.30709283
O      17.40485071     11.22407047     15.44131146      0.01981587      1.53393774     -1.56900317
38
Lattice="29.7 0.0 0.0 0.0 29.7 0.0 0.0 0.0 29.7" Properties=species:S:1:pos:R:3:forces:R:3 energy=-106.83104183 stress="-0.0003051282384559434 8.300880082346536e-05 -2.2076929310289437e-05 8.300880082346536e-05 -1.685176880593763e-05 9.418995261873691e-05 -2.2076929310289437e-05 9.418995261873691e-05 -0.000446346938730714" free_energy=-106.93994859 pbc="T T T"
Ag     15.43350950     15.96776781     13.03201916      0.00851501     -1.30642536      0.41774795
Ag     17.40684575     14.57878840     13.94975184      0.01050313      0.21766551     -0.45585924
Ag     16.12951170     11.64432414     13.89871883      0.00706736     -2.53579570     -0.57876782
Ag     16.29526592     18.59193079     15.41772971      0.00506267      0.12363210     -0.38995774
Ag     15.73577584     15.79489157     15.84232628      0.00677889     -0.04454555      0.08925743
Ag     11.92593996     14.22102456     13.17330822      0.00738420     -0.29332450      0.80244759
Ag     12.67749347     16.94052512     12.59496283      0.00748374      0.31240256      0.08840302
Ag     13.41499591     12.13207606     12.44636240      0.00795349      0.17501184     -1.24843841
Ag     10.91000291     12.84724860     15.24290349      0.00731254      0.04908947     -0.46016687
Ag     14.16607947     13.80096341     14.60229056      0.00779725      1.04778967      0.95586446
Ag     13.15014601     13.98129269     10.69945138      0.00814098      0.02539462      1.45151053
Ag     13.53968584     11.41985470     15.34485293      0.00989926     -1.55382111     -0.96001218
Ag     16.75797588     12.89228596     16.24365473      0.00993314     -2.27941790      3.89782229
Ag     19.01730008     12.38733150     14.76563833      0.01131777      2.42112989      0.92266746
Ag     18.03868415     12.62181390     12.23291866      0.00696140      0.98476817      0.06785485
Ag     15.60468875     12.90571446     11.32251961      0.00918802     -0.08342982      0.21821275
Ag     12.73548050     16.09690541     15.23673885      0.00626160      0.06215157      0.27413168
Ag     11.94813755     14.89972817     17.56551905      0.00801988     -1.12922290     -0.37828540
Ag     13.76989511     17.36956352     17.38320101      0.00721915      0.47346158     -1.18091178
Ag     14.67506527     14.07102075     17.61634496      0.00780096      0.10329133     -0.75004550
Ag     17.86451841     17.37357262     13.40170379      0.00689069     -0.06814757      0.00411423
Ag     17.33251537     14.97463855     10.69801150      0.00915229     -1.24548589      0.46387638
Ag     14.57240218     16.78686169     10.25594898      0.00746032      0.02036176     -0.01377055
Ag     13.33494028     19.04652966     14.66749468      0.00661019     -0.27281049     -0.82350612
Ag     15.54261218     18.75067378     12.54830510      0.00628619     -0.26018170     -0.27059770
O      14.47950712     18.97369939     16.41286843      0.04401505     -0.10138767      0.54919825
Cl     14.59958048     11.21471851     17.29783374      0.02292753      0.72005701      0.18013537
Cl     16.77488941     17.73755719     10.27451212      0.01049673      0.02218499     -0.03966254
O      12.65144317     16.15151360     10.62197903      0.00374135      0.11141069     -0.35630785
O      13.58752918     15.50857480     18.65049263      0.00330359     -0.25911151      1.23976282
Cl      9.64664156     14.01606512     16.93280316      0.00162871      0.84029754      0.13298428
O      12.00157081     11.54065562     13.85227695      0.01104483     -0.63326910      0.38712368
Cl     14.68237590     10.03074511     11.88983178      0.02082037      0.50602505      0.23512218
Cl     18.28914487     16.58572965     15.68912087      0.01373731      0.51120660      0.33688967
O      15.58191534     21.04199098     14.61970055      0.03138194      0.08851547      0.22653116
O      15.36397687     20.94828236     13.35455686      0.05937119      0.07568764      0.07849855
O      18.61232565     14.93728108     12.20597666      0.00949336      1.17744522     -0.27905740
O      17.43364121     11.41984530     15.30410663      0.01165448      1.99739648     -4.83480946
38
Lattice="29.7 0.0 0.0 0.0 29.7 0.0 0.0 0.0 29.7" Properties=species:S:1:pos:R:3:forces:R:3 energy=-107.61945007 stress="0.0001476948526947323 1.3524077007927341e-05 2.793170204771472e-05 1.3524077007927341e-05 0.00029924135315406546 0.00017227282960987272 2.793170204771472e-05 0.00017227282960987272 -0.00011263884247036941" free_energy=-107.72557693 pbc="T T T"
Ag     15.46768762     15.88167566     13.15676755      0.01324277     -0.87858307      0.71728255
Ag     17.52313768     14.44959172     14.04030048      0.00654631     -0.08206299      0.03804496
Ag     16.05289866     11.52498920     13.90877506      0.00674441      0.54224117     -0.46665801
Ag     16.26845775     18.61339470     15.39102665      0.00747027      0.36868153     -0.38169456
Ag     15.75039058     15.80158107     15.83366326      0.01143504      0.13338054      0.49344521
Ag     12.06577408     14.23578245     13.17068223      0.00767017     -0.66287079      0.32244765
Ag     12.63304174     16.92548990     12.74774351      0.00881699      0.38138911      0.54747121
Ag     13.42695468     12.07172507     12.46254941      0.00948695     -0.53539710     -1.05711184
Ag     10.98789373     12.83133620     15.31068089      0.00810229     -0.36179354      0.01279004
Ag     14.22748453     13.92675885     14.65590408      0.00659373      0.56753372     -0.66181801
Ag     13.19625136     14.22383355     10.65223205      0.00696557      0.27568682     -0.20004242
Ag     13.39724615     11.36863674     15.32208083      0.00945762      0.32681927     -0.35218083
Ag     16.78037294     13.00477935     16.36792046      0.00823761      0.01009556     -0.93150511
Ag     19.08870215     12.43452779     14.78389023      0.00954118     -0.51516726     -1.54705399
Ag     18.10562664     12.61995729     12.07578844      0.00523859      0.17345603     -0.34810166
Ag     15.50111622     12.85514136     11.25528740      0.00880498      0.72769501      0.13565467
Ag     12.61144213     16.14910076     15.12480515      0.00664388     -0.04247776     -0.21037732
Ag     11.84215341     14.86791429     17.57971836      0.00812031     -0.35181425      0.10505451
Ag     13.73167610     17.29781874     17.27281518      0.01025491      1.09779280      1.26266768
Ag     14.65972523     14.12373010     17.51028182      0.00779091     -0.96687750     -0.20606697
Ag     17.93016960     17.34321461     13.27261534      0.00943732     -0.30572056     -0.14782748
Ag     17.18201971     15.00498587     10.70452446      0.00772150     -0.22187201      0.46266072
Ag     14.56026167     16.77941813     10.30715460      0.00931341      0.66210557      0.40806253
Ag     13.28624902     18.98598853     14.68879090      0.00779638     -0.36398305     -0.56691425
Ag     15.56107311     18.81924085     12.56308440      0.00969624     -0.16298376     -0.82022957
O      14.46917264     18.94825248     16.37568987      0.03918709     -0.29809408      0.45711739
Cl     14.47139446     11.30380192     17.42014837      0.01254976      0.37174134      0.41391584
Cl     16.78246315     17.79111364     10.24222060      0.00726669     -0.13502882     -0.25840578
O      12.64901005     16.24137455     10.72150291      0.00431782     -0.46491411      0.26163619
O      13.45352833     15.84746127     18.49523503      0.00317378     -0.43918806     -1.93080136
Cl      9.68905941     13.95329051     16.91494555      0.00014316      0.31841167      0.18468692
O      11.90051272     11.54296854     13.97721676      0.00549188     -0.26813093      0.21440913
Cl     14.63876536      9.94404056     11.69867679      0.01395913      0.25722458      0.59686360
Cl     18.13058034     16.64594162     15.68492249      0.00896667      0.91505060      0.54473509
O      15.77197290     21.08795973     14.43929261      0.06445309      0.10600493      0.20261233
O      15.28771814     20.92307908     13.25558196      0.06082480      0.02926794      0.24618379
O      18.76228219     14.65450215     12.19415725      0.00655958     -0.14162828      0.10945138
O      17.73510664     10.67620844     15.34513661      0.00511160     -0.06599027      2.34959577
38
Lattice="29.7 0.0 0.0 0.0 29.7 0.0 0.0 0.0 29.7" Properties=species:S:1:pos:R:3:forces:R:3 energy=-106.82831601 stress="0.00035289206112475066 2.6055179845999665e-06 5.129775265286407e-05 2.6055179845999665e-06 0.0002955918429040155 5.382764227138572e-05 5.129775265286407e-05 5.382764227138572e-05 5.4315247688827094e-05" free_energy=-106.93641108 pbc="T T T"
Ag     15.45849818     15.85801488     13.18886549      0.00216146     -0.50571923      0.75987855
Ag     17.57912756     14.38175061     14.08886641      0.00871527     -0.29158950      0.51001687
Ag     16.02134770     11.45581541     13.90754275      0.00748933      0.70491628     -0.36914709
Ag     16.26315644     18.61428481     15.36714125      0.00817875     -0.22018564     -0.23788934
Ag     15.76166171     15.81698117     15.83505015      0.00252569      0.45695628      0.71860811
Ag     12.11834769     14.25549086     13.16528630      0.00744228     -0.60999843     -0.08170353
Ag     12.62060915     16.93555301     12.80338411      0.01022929      0.35436538      0.76903902
Ag     13.42327310     12.00972830     12.47500426      0.01000885     -0.78356817     -0.83943896
Ag     11.02299808     12.82248003     15.34384823      0.00994372     -0.91330365      0.79434798
Ag     14.27974841     13.97944379     14.68639644      0.00706854      0.08593886     -1.24967530
Ag     13.22683593     14.34395885     10.62739902      0.00695352      0.30986100     -0.44769320
Ag     13.33266184     11.32875534     15.32344271      0.00913314      0.33327052     -0.13009942
Ag     16.78018884     13.05016016     16.41818265      0.00858414      0.14994216     -0.94954986
Ag     19.12598553     12.42862620     14.79706531      0.01217978     -0.46480727     -1.81991119
Ag     18.14413338     12.61183328     11.99935694      0.00541136     -0.01627790     -0.26767662
Ag     15.46847244     12.83758476     11.21432813      0.00871786      0.73134811      0.11070736
Ag     12.55144325     16.16953721     15.08990903      0.00754608     -0.08252971     -0.59727646
Ag     11.77680672     14.85412665     17.59309663      0.00913173     -0.57686491     -0.03438430
Ag     13.73359375     17.27504694     17.22545426      0.00264968      0.98149414      1.36244377
Ag     14.63183688     14.14180489     17.48110883      0.00834123     -1.11764485     -0.25383961
Ag     17.95009641     17.32571227     13.19153618      0.01074511     -0.36540502     -0.35035088
Ag     17.09276460     15.03552195     10.70690475      0.00761608      0.10248568      0.24485546
Ag     14.59184481     16.79107443     10.33978078      0.00901103     -0.66911488      0.08086792
Ag     13.25120859     18.93837636     14.67237837      0.00664230      0.28645537     -0.41531956
Ag     15.56689469     18.82862205     12.55636183      0.00998728     -0.09813768     -0.95826932
O      14.45685196     19.03546161     16.49267372      0.01615433     -0.21066452     -0.08204731
Cl     14.46460397     11.39339822     17.50919088      0.00798082      0.17792043      0.38178456
Cl     16.78128421     17.78906678     10.23197787      0.00888939      0.09152222     -0.11142188
O      12.46812980     16.26851865     10.70064217      0.00358318      0.66340809      0.63084819
O      13.31903141     15.79674137     18.42468171      0.00261366      0.46875968     -1.10568713
Cl      9.74425900     13.93902985     16.91361712      0.00160077     -0.32255858      0.15266182
O      11.69558978     11.57682849     14.00842674      0.00669241      1.20947746     -0.56378115
Cl     14.63863822      9.93782778     11.61285840      0.00383626      0.21177804      0.64841787
Cl     18.12048684     16.71676612     15.74484421      0.00885468      0.75614188      0.54186279
O      15.84432612     21.21206802     14.37574516      0.04305240     -0.10453872     -0.08039526
O      15.28005110     20.88191330     13.25970383      0.06276281      0.13757171      0.62355986
O      18.86749750     14.57792240     12.19193161      0.00935523     -0.65434798      0.27153887
O      17.82103460     10.51135714     15.32526090      0.01888745     -0.20635662      2.34411836
38
Lattice="29.7 0.0 0.0 0.0 29.7 0.0 0.0 0.0 29.7" Properties=species:S:1:pos:R:3:forces:R:3 energy=-107.37296455 stress="0.00044796817072616224 -5.163093689302198e-05 3.164385832486116e-05 -5.163093689302198e-05 0.00039216196382036236 1.4742057581770451e-05 3.164385832486116e-05 1.4742057581770451e-05 0.0003186621770482897" free_energy=-107.45638634 pbc="T T T"
Ag     15.43513949     15.85035496     13.19463314      0.00445192     -0.17928782      0.73501494
Ag     17.64220194     14.30425769     14.13810725      0.01062543     -0.55868480      1.01982954
Ag     16.00810528     11.35359837     13.91602211      0.00879892      0.59218623     -0.12121005
Ag     16.24727636     18.60615583     15.33716852      0.00941326     -0.40733521     -0.16458864
Ag     15.79018284     15.85881167     15.84744141      0.00549240      0.85382334      0.63094568
Ag     12.17182856     14.27931400     13.15087416      0.00730282     -0.34270650     -0.36757504
Ag     12.61507905     16.97193805     12.80156920      0.00282076      0.26397550      0.50260186
Ag     13.39282312     11.90189901     12.51029996      0.00496725     -0.54027738     -0.29235492
Ag     11.05105533     12.82886485     15.39347733      0.01044788     -0.19775281     -0.30468748
Ag     14.35273284     14.01001288     14.72751794      0.00838975     -0.35044223     -1.51733019
Ag     13.27556142     14.48841990     10.60299303      0.00813326      0.08816235     -0.39133016
Ag     13.26072079     11.27222824     15.33914785      0.00940735      0.26441868      0.05393700
Ag     16.78049087     13.09003304     16.46199848      0.00891153      0.01237077     -0.80046345
Ag     19.15604353     12.36050742     14.82967305      0.00969462     -0.06633722     -1.37436031
Ag     18.18955394     12.59542008     11.90445165      0.00594054     -0.07345689      0.15524132
Ag     15.44694462     12.81884061     11.15597065      0.00896873      0.34491285     -0.00971738
Ag     12.47139939     16.17782476     15.10310491      0.00752683     -0.15354815     -0.77700378
Ag     11.67453991     14.83667277     17.60806665      0.01011254      0.25691084      0.29693486
Ag     13.75859866     17.28098669     17.16602502      0.00546907      0.22400389     -0.22299291
Ag     14.56551803     14.16006712     17.47447949      0.00859111     -0.67899219     -0.32809735
Ag     17.96196129     17.29234315     13.08016344      0.00512399     -0.38233442     -0.51431593
Ag     16.97645101     15.08392080     10.72943789      0.00758447      0.24816333     -0.00450740
Ag     14.61997827     16.80932817     10.39769904      0.00896187     -0.99543555      0.28831546
Ag     13.21730251     18.86144949     14.65426931      0.00562998      0.58076722     -0.10570684
Ag     15.57303875     18.81265933     12.54232420      0.00933102     -0.09594007     -0.74726033
O      14.41204128     19.10797183     16.53527127      0.00978295      0.01515768     -0.22203883
Cl     14.48531528     11.54756123     17.58515343      0.01066363      0.04189415      0.04807060
Cl     16.78961650     17.77306937     10.21790806      0.01187809      0.37521473      0.10807474
O      12.37658772     16.40876480     10.66973234      0.00323952      1.05284126      0.16756851
O      13.28143128     15.56912912     18.46886009      0.00273679      0.94469890      1.06028512
Cl      9.75823699     13.93022885     16.93195185      0.00570723     -1.46767183     -0.08491508
O      11.62345846     11.53178769     13.82996681      0.00554219      1.01403522      0.52849828
Cl     14.64710580      9.99190283     11.52192937      0.00766474      0.35585679      0.48927784
Cl     18.16248365     16.86873130     15.84939004      0.01319775      0.36104090      0.37791477
O      15.93358230     21.39501396     14.28214857      0.03941025     -0.26285556     -0.27737673
O      15.27008908     20.90429970     13.29299625      0.05041876      0.23879314      0.64459363
O      18.88858003     14.58840066     12.16231255      0.01197282     -0.91507337      0.06189918
O      17.85881866     10.72892682     15.10455338      0.00697163     -0.46109577      1.45882946
38
Lattice="29.7 0.0 0.0 0.0 29.7 0.0 0.0 0.0 29.7" Properties=species:S:1:pos:R:3:forces:R:3 energy=-107.76394457 stress="2.5740645235109904e-05 -1.128945446162386e-06 1.893874845386834e-05 -1.128945446162386e-06 0.00023242065522967342 -9.37196299400651e-06 1.893874845386834e-05 -9.37196299400651e-06 0.0002002707228618674" free_energy=-107.8740549 pbc="T T T"
Ag     15.40393814     15.87711204     13.15278273      0.00581138     -0.22854251      0.34661988
Ag     17.69321783     14.25271543     14.16288436      0.00615179     -0.56952037      0.98130237
Ag     16.01148360     11.22459425     13.92117503      0.01454715     -3.75216159      0.35720532
Ag     16.20885574     18.59043850     15.30866606      0.00991647      0.20436530     -0.15039103
Ag     15.85987965     15.93633076     15.88226837      0.00818648      0.82160140     -0.13085202
Ag     12.22265034     14.29067569     13.12528202      0.00784800      0.02061318     -0.12293564
Ag     12.62220837     17.03980275     12.68792018      0.00581605      0.02980412     -0.04576002