43
Lattice="29.7 0.0 0.0 0.0 29.7 0.0 0.0 0.0 29.7" Properties=species:S:1:pos:R:3:forces:R:3 energy=-126.63618352 stress="0.00022301964425219508 -0.0001647520794980758 -8.01888807588822e-05 -0.0001647520794980758 -0.0001256280034216812 0.00012184240330665048 -8.01888807588822e-05 0.00012184240330665048 -6.363774048150185e-05" free_energy=-126.77312043 pbc="T T T"
Ag     12.29247107     16.07980545     11.82754196      0.00695872     -0.80275529     -0.35145422
Ag     15.64521758     13.84128419     16.37410510      0.00485331      0.41156986      0.70003252
Ag     13.97732168     10.65881950     12.27739552      0.00196283     -0.72052668     -0.78366292
Ag     15.32014965     16.40097651     15.45036393      0.00185072     -0.63261403      0.29329773
Ag     12.82541021     14.29408866     15.55293181      0.00522132      1.84464070     -0.42592880
Ag     11.60537344     13.26956962     11.24545253      0.00532829      0.81642825      0.36343903
Ag     10.63309996     14.31948666     13.58273390      0.00337496      0.47864414      0.49290874
Ag     10.41864339     11.18892937     12.56965282      0.00172706      0.10680196     -1.02557672
Ag      9.06196268     12.83356731     15.19266742      0.00474004     -0.12023947     -0.74382304
Ag     14.58501488     15.47240089     13.01967712      0.00207933     -1.71654759      1.48747757
Ag     13.36033899     15.40235949      9.43594571      0.00589887     -0.85456746     -0.62347196
Ag     12.43735000     11.86774289     14.15648718      0.00166402     -0.34119289      0.12830465
Ag     14.35084739     11.63899948     16.19658900      0.00279720     -1.11837485     -1.01200242
Ag     14.93696457     13.01862246     13.65819984      0.00643150      0.33179429     -0.80494957
Ag     17.41102295     12.01184488     12.45371451      0.00182446     -0.24858924     -0.28584347
Ag     14.77373629     13.68453174     11.05396307      0.00576448     -0.74004363      0.58391142
Ag     11.88937346     16.50805324     14.50965496      0.00196668     -0.00877418      0.90768366
Ag     10.87950670     14.07190497     17.10762242      0.00272843     -2.51867037     -1.30877367
Ag     12.70732613     16.38365893     17.59251564      0.00727586     -0.04265420     -0.31044616
Ag     13.41286991     13.13710455     18.28152507      0.00544748     -0.53490686      0.87792886
Ag     19.53625920     13.84688374     12.46122628      0.00155353      0.23195972      1.04063800
Ag     17.02492329     14.95527212     12.99753443      0.00275803      1.02980204     -0.19007293
Ag     12.63531238     18.70925177     11.43756496      0.00293570      0.43181219      0.09108183
Ag     13.25642785     18.97708590     14.85182242      0.00325730     -0.72873781      0.13199496
Ag     15.57553830     16.19324757     10.55624814      0.00152858      1.04865827      0.67263635
O      13.58898193     17.71192802     16.34743086      0.00220904      1.14404417     -0.59953476
Cl     15.78570174     12.46892271     18.54827218      0.00498892     -0.10536405     -0.05906708
Cl     11.97159434     20.14930132     13.31600959      0.00143802      0.12341451      0.07397076
O      13.45147572     17.46293813      9.85938960      0.00634483     -0.02199765      0.36850657
O      11.83746576     14.88228192     18.61872323      0.00368965      1.26149563      0.03427336
Cl      8.76764821     12.29806928     17.37697281      0.00937493      0.10975295      0.46955184
O       9.27989285     12.71661470     13.18698930      0.00534988     -0.44105489      0.09817249
Cl     11.95969378      9.27244382     12.25057816      0.00439486     -0.06081288      0.60311846
Cl     19.13910594     16.17871328     12.69088213      0.00129087      0.23447129      0.18223315
O       2.79822253     21.28308464     14.38730011      0.00159277      1.29498499      0.33089539
O       3.88274202     21.55937965     13.81495006      0.00159277     -1.30218959     -0.33113054
O      19.30235650     12.00920427     13.10187806      0.00289736     -0.13304663     -0.80759585
O      15.48122035     11.89654254     11.66837969      0.00527058      0.92153194     -1.07819257
O      17.98333157     14.79869369      9.65091842      0.05260467     -0.46783964      0.23444656
O      11.75343944     10.95904020     16.41605575      0.01932005      1.09945173      0.62789833
O      15.88997466     18.81679776     13.83079013      0.00339645      1.11381101      0.18554881
O      16.97245223     19.12875805     13.25053026      0.00288615     -0.97978799     -0.21093883
Cl      9.53565388     16.54444390     12.81810759      0.00329752      0.60621825     -0.02748554
43
Lattice="29.7 0.0 0.0 0.0 29.7 0.0 0.0 0.0 29.7" Properties=species:S:1:pos:R:3:forces:R:3 energy=-130.15907142 stress="0.00016167906623843804 1.1028047576413619e-05 2.5928714388091014e-05 1.1028047576413619e-05 -1.5928949198657537e-05 -7.617221997601129e-05 2.5928714388091014e-05 -7.617221997601129e-05 0.000511622963010596" free_energy=-130.31319744 pbc="T T T"
Ag     12.23065578     16.07936981     11.73789828      0.00771897     -0.86048375      0.55429704
Ag     15.56661703     13.83443620     16.32932978      0.00322724      0.71617079      0.88747386
Ag     14.04078445     10.65650824     12.22888704      0.00189474      0.16599265      0.39622480
Ag     15.29181688     16.35974387     15.41629558      0.00593614      0.72015757     -0.54218687
Ag     12.99545803     14.50350119     15.32792576      0.00458641     -0.12343942     -0.71276565
Ag     11.72796051     13.59472408     10.98616683      0.00185865      0.38661985     -0.79653403
Ag     10.69247465     14.16856613     13.35041784      0.00482378     -0.23667361     -0.37043908
Ag     10.31800671     11.00100583     12.53132126      0.00344747      0.50907229      0.20009244
Ag      9.15701235     12.64068638     15.22779048      0.00555262      0.04096599     -0.68762272
Ag     14.28098275     15.51456803     13.18025790      0.00588058      0.43224299      0.06174206
Ag     12.97894153     15.52851410      9.39708847      0.00559513      0.40475776     -0.28352991
Ag     12.24521730     11.83579360     14.31399641      0.00550548      0.04083971      0.22586167
Ag     14.40367432     11.57141665     16.32243588      0.00560879     -1.37032767     -0.86360329
Ag     15.03835813     12.92641756     13.70766588      0.00553332     -0.26939971     -0.19023427
Ag     17.41019456     11.93187633     12.77557705      0.00240157     -0.17845859     -0.57239383
Ag     14.80556109     13.81153482     10.99285032      0.00349207     -0.06399217     -0.53037635
Ag     11.71981907     16.69835824     14.32535917      0.00132144      0.88541298      0.36145262
Ag     10.75742790     14.04397864     17.07684607      0.00784222      0.26931084     -0.28198567
Ag     12.76361945     16.25565225     17.55027242      0.00632475      1.42314880      1.14266197
Ag     13.30381932     13.20222069     18.41960542      0.00822708     -0.00191418      0.12834283
Ag     19.45950234     13.68058499     12.41845980      0.00551817      0.31018307      1.57396083
Ag     17.01131341     14.86447193     13.19904360      0.00234307     -0.09443633      0.18066028
Ag     12.64185762     18.79495069     11.44356352      0.00204772      0.63201650     -0.20580992
Ag     13.41910921     18.81097806     14.85235060      0.00262865     -0.06406734     -0.42316870
Ag     15.55540944     16.27846188     10.46121878      0.01038998     -1.12926605      1.40173856
O      14.25045942     17.68128179     16.48687134      0.00400539     -1.50286372      0.70707754
Cl     15.72342690     12.62758013     18.52738286      0.00416970      0.20014694     -0.25050027
Cl     11.89880464     19.98173603     13.39391634      0.00365350      0.17856610     -0.01041494
O      13.88907595     17.46225789     10.35568277      0.00373790     -0.50903842      0.06422786
O      12.11948187     14.90749290     18.79554938      0.00422099     -1.01288033     -0.55745694
Cl      9.15094354     12.14878590     17.73562212      0.01892555     -0.11682872      0.57968357
O       9.17058170     12.49761801     13.07792329      0.00324209     -0.35741713      0.96949015
Cl     12.01558033      9.49338538     12.12702872      0.00508618      0.03192227     -0.81825043
Cl     19.13385928     16.03149476     12.37854447      0.00621260      0.10081237     -0.10218320
O       3.13681929     21.54608851     14.11063513      0.00351929     -1.94041403     -1.10970292
O       3.96620062     22.02063061     13.38492889      0.00351929      1.94095977      1.10973744
O      19.39050915     11.83821827     13.02690017      0.00358112      0.10220643     -1.04047090
O      15.67487498     11.81141976     11.62043500      0.00414171     -0.52610023      0.12140343
O      17.04414232     15.14634155     10.44551958      0.03613809      0.75406688     -0.97811420
O      12.10034278     11.85887395     16.63068052      0.05644347      1.27173877      0.39239635
O      16.34770159     18.87777172     13.54787781      0.01026245     -1.07698030     -1.11811972
O      17.02256486     19.57801505     12.82865374      0.00294743      1.11790367      1.15715027
Cl      9.59911366     16.46261501     13.45451359      0.00473130     -1.20023328      0.23018827
43
Lattice="29.7 0.0 0.0 0.0 29.7 0.0 0.0 0.0 29.7" Properties=species:S:1:pos:R:3:forces:R:3 energy=-129.89804614 stress="0.00031929333093411725 -7.095441196940976e-06 -5.641702595489528e-05 -7.095441196940976e-06 6.431498167071494e-05 -0.0001129939656151048 -5.641702595489528e-05 -0.0001129939656151048 0.0005761245533211566" free_energy=-130.0551389 pbc="T T T"
Ag     12.21216529     16.08298790     11.73664554      0.00760885     -0.84022282      0.56807365
Ag     15.57293263     13.85834280     16.32037600      0.00375763      0.60297701      0.49996017
Ag     14.04985404     10.66158679     12.21960753      0.00262952     -0.29573226      0.14316899
Ag     15.29278948     16.35249417     15.41306278      0.00586653      0.61173196     -0.17284262
Ag     13.01927258     14.51240119     15.30803867      0.00469992     -0.32504964     -0.77866852
Ag     11.74664003     13.61463812     10.96015480      0.00231231      0.33725816     -0.86768451
Ag     10.69284229     14.14922716     13.33517693      0.00517749     -0.08399722     -0.12206237
Ag     10.30875310     10.99411013     12.52921615      0.00364235      0.44420303      0.23858689
Ag      9.16279124     12.61499118     15.23831846      0.00505754      0.06613637     -0.63130671
Ag     14.24877006     15.53069935     13.19539503      0.00605757      0.62370155     -0.03026155
Ag     12.94880455     15.53290931      9.38100055      0.00560383      0.42721810     -0.28256738
Ag     12.22680563     11.84075539     14.30942561      0.00523426      0.19779701      0.27213989
Ag     14.42434936     11.54249926     16.33149632      0.00567953     -1.28363502     -0.52465920
Ag     15.04515090     12.90756710     13.72397480      0.00563912     -0.36455578     -0.03281032
Ag     17.40680463     11.91351356     12.79776893      0.00310814     -0.14409709     -0.48193032
Ag     14.80614830     13.80120461     10.98123354      0.00311736     -0.08876735     -0.08839067
Ag     11.71096276     16.72424875     14.31662159      0.00083690      0.99833971      0.25212503
Ag     10.74220760     14.03349433     17.08280991      0.00869103      0.48380316     -0.01106010
Ag     12.77557173     16.24332960     17.53859329      0.00636045      1.45947686      1.26059073
Ag     13.29900572     13.21149252     18.43116829      0.00850065     -0.19136011      0.27959877
Ag     19.45772990     13.67667233     12.41854361      0.00442339      0.29022756      1.55908277
Ag     17.01895014     14.85952787     13.21431469      0.00216861     -0.25147021      0.16474826
Ag     12.64544291     18.80786325     11.45541810      0.00260936      0.84715327     -0.51015184
Ag     13.42516142     18.79491999     14.85452396      0.00240657      0.05758424     -0.40346096
Ag     15.52231061     16.32604837     10.45259584      0.00339994      2.35384968     -1.42048026
O      14.28298404     17.70858772     16.51794668      0.00356878     -1.41768831      0.39484104
Cl     15.72794411     12.62468485     18.52813073      0.00391039      0.09547595     -0.20130842
Cl     11.91025958     19.95539444     13.37589203      0.00394986      0.06788705      0.15166081
O      13.95122828     17.41168297     10.39649428      0.00451968     -2.17251927      1.38999016
O      12.05004801     14.94253596     18.79152550      0.00609972     -0.75566041     -0.83008143
Cl      9.19442466     12.17023703     17.71263124      0.02378064     -0.44826845      0.29064601
O       9.20246890     12.52557918     13.12838670      0.00289689     -0.43497942      0.66361243
Cl     12.01703246      9.48747407     12.11513107      0.00562117      0.04671974     -0.75093866
Cl     19.13728118     16.00729569     12.35899444      0.00798172      0.08402701      0.07101805
O       3.14879802     21.55805999     14.10234740      0.00207275      0.55999348      0.33940910
O       3.98869976     22.06782380     13.33548715      0.00207275     -0.55984479     -0.34022026
O      19.41016589     11.84469009     13.02122950      0.00314919     -0.01126153     -1.23600970
O      15.61238651     11.85935562     11.65079065      0.00416762      0.11191353      0.07184345
O      17.13671345     15.01819308     10.52653041      0.04438578     -1.21577021      0.56975013
O      11.97092749     11.92361304     16.74258532      0.06851884      1.42621292      0.33812995
O      16.37839040     18.87453595     13.53164926      0.00315746      0.08092253      0.09870889
O      17.03031400     19.61994816     12.78764304      0.00231719     -0.05548842     -0.06659668
Cl      9.59063062     16.46103275     13.49876947      0.00577374     -1.33424160      0.16580730
43
Lattice="29.7 0.0 0.0 0.0 29.7 0.0 0.0 0.0 29.7" Properties=species:S:1:pos:R:3:forces:R:3 energy=-129.0589555 stress="0.0003030709371839063 1.616106468154001e-05 -9.039474057965233e-05 1.616106468154001e-05 8.9971098147733e-05 -0.00015291327236922818 -9.039474057965233e-05 -0.00015291327236922818 0.0005859555793113718" free_energy=-129.21588554 pbc="T T T"
Ag     12.19187628     16.08797603     11.73621700      0.00750185     -0.82628061      0.57991080
Ag     15.58026494     13.88342553     16.31136406      0.00422030      0.51228055      0.12235476
Ag     14.05817500     10.66697238     12.20989919      0.00358695     -0.79790952     -0.19333168
Ag     15.29512030     16.34502689     15.40978207      0.00576475      0.48175094      0.27308136
Ag     13.04236068     14.51965075     15.28943949      0.00488895     -0.51392912     -0.86590437
Ag     11.76615020     13.63257127     10.93325893      0.00263081      0.28020291     -0.93555810
Ag     10.69311598     14.12981002     13.32099848      0.00557426      0.13732334      0.20996304
Ag     10.30064249     10.98776676     12.52712848      0.00357042      0.30471959      0.36722012
Ag      9.16853661     12.58819679     15.25022296      0.00458230      0.07041787     -0.57129557
Ag     14.21806389     15.54688400     13.20876214      0.00621458      0.80354594     -0.06808984
Ag     12.91998657     15.53702179      9.36311783      0.00561214      0.47208268     -0.23285897
Ag     12.20898866     11.84657838     14.30736762      0.00496484      0.35192695      0.30174191
Ag     14.44224779     11.51228482     16.34018980      0.00584481     -1.06198664     -0.23156763
Ag     15.05092371     12.88865764     13.74149486      0.00576050     -0.46620872      0.11843787
Ag     17.40284567     11.89402983     12.81853957      0.00427564     -0.02726608     -0.40037447
Ag     14.80657746     13.79049810     10.96917306      0.00273445     -0.13785087      0.38535726
Ag     11.70438533     16.75074040     14.30969246      0.00097978      0.98332912      0.14920317
Ag     10.72836815     14.02279623     17.08904519      0.00966591      0.69448251      0.42709980
Ag     12.79053829     16.23383556     17.52409069      0.00618288      1.30625710      1.15525926
Ag     13.29434246     13.22137102     18.44199802      0.00878661     -0.30200804      0.35183426
Ag     19.45663520     13.67638885     12.41837415      0.00399469      0.27595733      1.15169182
Ag     17.02612698     14.85500018     13.22924797      0.00227264     -0.39192349      0.15620130
Ag     12.65117626     18.81942038     11.46712831      0.00392450      0.97864658     -0.72562133
Ag     13.43140007     18.77795250     14.85830840      0.00243743      0.13721539     -0.34137108
Ag     15.49483587     16.37027832     10.44537904      0.00591040      4.49284031     -3.11492836
O      14.29484611     17.73932063     16.54882117      0.00309014     -1.24764463      0.00093047
Cl     15.73272219     12.62046011     18.52835314      0.00367353     -0.00315881     -0.14809579
Cl     11.92216191     19.93004484     13.35859724      0.00414401     -0.05597508      0.33112253
O      13.97670992     17.38182024     10.43514270      0.00725951     -3.97987554      2.61863102
O      11.96821255     14.96432998     18.78866037      0.00758082     -0.39466089     -0.77720195
Cl      9.23491750     12.19261433     17.68361395      0.02601909     -0.86031375     -0.09253892
O       9.22763401     12.56207945     13.18373028      0.00265960     -0.48963373      0.16957105
Cl     12.01818901      9.47672244     12.10269478      0.00606763      0.05249256     -0.65480851
Cl     19.14125908     15.98401633     12.33988886      0.00890809      0.08757220      0.27579570
O       3.16554955     21.57310312     14.08950138      0.00014676      1.78797714      1.14585416
O       4.00638534     22.11187538     13.29067195      0.00014676     -1.78839110     -1.14596604
O      19.42924291     11.83302404     13.02206416      0.00256282     -0.15140110     -1.06420743
O      15.55202828     11.90896501     11.69093648      0.00315923      0.76114046      0.00781906
O      17.20976597     14.89762547     10.60804239      0.02494828     -1.62227108      0.93323051
O      11.86001875     11.99543338     16.84070780      0.09959652      1.47132675      0.21020141
O      16.40912315     18.87172404     13.51484854      0.00620919      0.88244018      1.12399487
O      17.03711854     19.66152234     12.74716271      0.00083190     -0.87510990     -1.10181351
Cl      9.57378375     16.45966505     13.54019633      0.00626240     -1.33212969      0.09902603
43
Lattice="29.7 0.0 0.0 0.0 29.7 0.0 0.0 0.0 29.7" Properties=species:S:1:pos:R:3:forces:R:3 energy=-128.61690949 stress="0.00021932167492529176 -7.451783308408641e-05 -1.1979047597397073e-05 -7.451783308408641e-05 3.881937808388722e-05 -0.00011044227440520647 -1.1979047597397073e-05 -0.00011044227440520647 0.00045495477248696603" free_energy=-128.76718374 pbc="T T T"
Ag     12.16993643     16.09429098     11.73642163      0.00741227     -0.79443826      0.57990264
Ag     15.58844633     13.90883184     16.30256493      0.00458449      0.45334930     -0.23641075
Ag     14.06465445     10.67188742     12.19999769      0.00443273     -1.22979750     -0.53514083
Ag     15.29851255     16.33827226     15.40685953      0.00575998      0.37771360      0.68488552
Ag     13.06425062     14.52507282     15.27244338      0.00517183     -0.69764814     -0.96574285
Ag     11.78638495     13.64838305     10.90563183      0.00274606      0.22597199     -1.00027427
Ag     10.69382430     14.11099742     13.30780983      0.00598489      0.41869618      0.59313503
Ag     10.29338627     10.98231320     12.52522515      0.00330044      0.17741541      0.49343476
Ag      9.17420367     12.56026267     15.26386470      0.00426381      0.05947157     -0.51167990
Ag     14.18922643     15.56292216     13.21977578      0.00636077      0.95354529     -0.06514635
Ag     12.89242198     15.54083661      9.34361244      0.00561818      0.53850614     -0.13019851
Ag     12.19208158     11.85325794     14.30733115      0.00490588      0.48465518      0.31467689
Ag     14.45774037     11.48141444     16.34858099      0.00608928     -0.84125144      0.01686185
Ag     15.05556017     12.87006641     13.76022594      0.00589120     -0.56134202      0.26900515
Ag     17.39873027     11.87375274     12.83782687      0.00545569      0.14017926     -0.32549293
Ag     14.80668803     13.78034309     10.95647318      0.00233142     -0.20513666      0.82425783
Ag     11.70003948     16.77757741     14.30453259      0.00165845      0.83526484      0.03172477
Ag     10.71610310     14.01365130     17.09552761      0.01083717      0.84026586      1.00013330
Ag     12.80818145     16.22683604     17.50747140      0.00594667      1.02182968      0.95057199
Ag     13.28973388     13.23195199     18.45214914      0.00905725     -0.33303017      0.37495225
Ag     19.45617336     13.67870739     12.41810125      0.00368596      0.27213610      0.47675917
Ag     17.03253452     14.85089522     13.24403539      0.00252516     -0.51556780      0.14515065
Ag     12.65927872     18.82904627     11.47805480      0.00456460      1.01977908     -0.82437132
Ag     13.43800696     18.76019869     14.86382691      0.00292770      0.15519076     -0.24120987
Ag     15.47721810     16.40794981     10.43978994      0.00650913      4.58740168     -3.26212994
O      14.28860704     17.76836216     16.57515824      0.00280010     -1.04058063     -0.34914627
Cl     15.73714642     12.61532313     18.52754912      0.00349968     -0.09598164     -0.09912056
Cl     11.93368481     19.90692987     13.34384501      0.00399667     -0.18151104      0.51778539
O      13.94329161     17.39082579     10.47202841      0.00685260     -4.09888893      2.53254299
O      11.87950408     14.97499366     18.78250814      0.00946721      0.02833142     -0.54426301
Cl      9.26767139     12.21323238     17.65115218      0.05262858     -1.30874623     -0.52543077
O       9.24511564     12.59968948     13.23689820      0.00264649     -0.59586877     -0.37230975
Cl     12.01929268      9.46179228     12.08983470      0.00640848      0.05165311     -0.53538293
Cl     19.14569168     15.96310838     12.32081785      0.01096210      0.10813838      0.51452757
O       3.20431072     21.60224256     14.05574483      0.00212488      0.47285805      0.32004232
O       4.00202758     22.14177284     13.26682370      0.00212488     -0.47219672     -0.31954951
O      19.44440181     11.80597614     13.02759587      0.00235159     -0.29075035     -0.64076645
O      15.50255708     11.95779469     11.74115482      0.00317230      1.29602794     -0.10882697
O      17.25679366     14.79012078     10.68979788      0.02023825     -1.62528578      0.92323301
O      11.77503408     12.06896210     16.92465509      0.10802374      1.55659673     -0.03693478
O      16.45174454     18.88413717     13.48322780      0.00676145      0.36633442      0.51855174
O      17.03080840     19.68768571     12.72192638      0.00195549     -0.35360726     -0.49536452
Cl      9.54860558     16.45821033     13.57900239      0.00624860     -1.19968266      0.04275819
43
Lattice="29.7 0.0 0.0 0.0 29.7 0.0 0.0 0.0 29.7" Properties=species:S:1:pos:R:3:forces:R:3 energy=-128.34115428 stress="0.00018752195987604818 -0.00022329353415565708 0.00010262923442104442 -0.00022329353415565708 -5.4494010751701514e-05 -2.8686356674616135e-05 0.00010262923442104442 -2.8686356674616135e-05 0.00024762678773948066" free_energy=-128.48020321 pbc="T T T"
Ag     12.14645631     16.10184913     11.73707423      0.00735300     -0.74632542      0.57299479
Ag     15.59737086     13.93375630     16.29423521      0.00486167      0.42320973     -0.56121303
Ag     14.06838169     10.67559033     12.19010065      0.00492260     -1.48050838     -0.76370293
Ag     15.30269265     16.33303460     15.40466361      0.00588294      0.30974464      1.01949970
Ag     13.08440322     14.52830521     15.25746059      0.00553588     -0.86732134     -1.06864685
Ag     11.80723332     13.66195389     10.87749003      0.00263238      0.18549856     -1.06634496
Ag     10.69559186     14.09355816     13.29548765      0.00633463      0.68346535      0.94557802
Ag     10.28671653     10.97805324     12.52367462      0.00292210      0.10947490      0.56458054
Ag      9.17959281     12.53112134     15.27933053      0.00426652      0.04123736     -0.44180820
Ag     14.16252027     15.57872243     13.22792308      0.00649186      1.06875227     -0.02699139
Ag     12.86620173     15.54450644      9.32270107      0.00562686      0.61475115      0.01211210
Ag     12.17632604     11.86079306     14.30931608      0.00502806      0.58687961      0.31667760
Ag     14.47124542     11.45042357     16.35658475      0.00628557     -0.67221039      0.21841022
Ag     15.05892361     12.85216803     13.78037847      0.00605057     -0.65321341      0.42430371
Ag     17.39495731     11.85289321     12.85566771      0.00637475      0.31685455     -0.25852712
Ag     14.80649164     13.77184503     10.94278885      0.00195199     -0.25902370      1.14399621
Ag     11.69757114     16.80446883     14.30100463      0.00253609      0.57828753     -0.08983581
Ag     10.70576517     14.00751744     17.10225109      0.00348462      0.85234871      1.64792791
Ag     12.82787111     16.22178962     17.48960773      0.00582322      0.69862753      0.76724317
Ag     13.28497974     13.24323310     18.46163526      0.00918709     -0.30989346      0.36808559
Ag     19.45623070     13.68200975     12.41788992      0.00346520      0.27922047     -0.22367898
Ag     17.03787726     14.84729698     13.25909885      0.00289538     -0.61746679      0.13583136
Ag     12.66964481     18.83663248     11.48788324      0.00450165      0.83944287     -0.64535900
Ag     13.44505548     18.74187775     14.87109789      0.00370524      0.12264546     -0.10275007
Ag     15.46933279     16.43879560     10.43566113      0.00549431      2.87326527     -2.20208617
O      14.26750296     17.79104448     16.59377148      0.00280145     -0.81488492     -0.61743993
Cl     15.74064852     12.60967268     18.52532873      0.00342644     -0.17564952     -0.05704065
Cl     11.94398147     19.88733108     13.33354208      0.00349829     -0.29782366      0.69568947
O      13.85178132     17.43743190     10.50608510      0.00550307     -2.29363184      1.06176805
O      11.79071059     14.97876885     18.76809044      0.01296246      0.45359646     -0.27589439
Cl      9.28901324     12.22952636     17.61789151      0.03230522     -1.74297095     -0.95592420
O       9.25345465     12.63044277     13.28041923      0.00278617     -0.73042532     -0.82421269
Cl     12.02053042      9.44353219     12.07668161      0.00660281      0.04365594     -0.39816363
Cl     19.15057936     15.94590368     12.30143203      0.01145833      0.12871666      0.74393759
O       3.24713790     21.63393740     14.01817413      0.00353041     -1.77564679     -1.27205233
O       3.99357779     22.16907023     13.24683317      0.00353041      1.77561743      1.27187787
O      19.45263522     11.77029203     13.03504227      0.00257996     -0.40311905     -0.17615135
O      15.47147233     12.00395762     11.80009831      0.00642192      1.58613821     -0.30741967
O      17.27803587     14.69428428     10.77244665      0.02230229     -1.54698441      0.81510723
O      11.72201106     12.14151100     16.99278655      0.06023862      1.75144754     -0.40822400
O      16.49867044     18.90275579     13.44586182      0.00874281     -0.73442946     -1.13186161
O      17.01883283     19.70763219     12.70299545      0.00278774      0.75481339      1.15809369
Cl      9.51606591     16.45651348     13.61560913      0.00588929     -0.95616279     -0.00838585
43
Lattice="29.7 0.0 0.0 0.0 29.7 0.0 0.0 0.0 29.7" Properties=species:S:1:pos:R:3:forces:R:3 energy=-127.65681887 stress="0.000390246057696063 -0.00011147770956164486 4.355780698207527e-06 -0.00011147770956164486 -2.6107621005675336e-05 -0.00026362968009675255 4.355780698207527e-06 -0.00026362968009675255 0.00014998008139702846" free_energy=-127.790274 pbc="T T T"
Ag     12.09503592     16.12017305     11.73901772      0.00730562     -0.70123177      0.50262292
Ag     15.61729997     13.97928388     16.27995552      0.00530306      0.42420844     -1.06989578
Ag     14.06605273     10.67797363     12.17062864      0.00441859     -1.30496252     -0.62298487
Ag     15.31273556     16.32955000     15.40306154      0.00625824      0.24575542      1.43348285
Ag     13.11805989     14.52757433     15.23438346      0.00637803     -1.10640965     -1.23115088
Ag     11.85027274     13.68197943     10.82073229      0.00185678      0.12213737     -1.16881908
Ag     10.70422549     14.06536019     13.27281659      0.00648744      0.75170101      1.19560287
Ag     10.27469487     10.97354650     12.52202109      0.00223776      0.13844783      0.52227894
Ag      9.18937668     12.46951493     15.31429666      0.00544871      0.02419512     -0.24876427
Ag     14.11633066     15.60969375     13.23397039      0.00665371      1.21797442      0.08654484
Ag     12.81856922     15.55270772      9.27762504      0.00573010      0.73893922      0.30236002
Ag     12.14904236     11.87803611     14.31840478      0.00540766      0.69249375      0.28113047
Ag     14.49420101     11.38983328     16.37102032      0.00646184     -0.48417586      0.49830042
Ag     15.06117660     12.82004253     13.82699425      0.00656632     -0.85010653      0.72326715
Ag     17.39024922     11.80990740     12.88733489      0.00727084      0.60815761     -0.14072259
Ag     14.80505842     13.76223942     10.91183298      0.00204351     -0.15895232      1.25699744
Ag     11.69578834     16.85713310     14.29796027      0.00440511     -0.08118511     -0.32185737
Ag     10.69101877     14.00705051     17.11610430      0.01026232      0.28141962      2.58447073