17
Lattice="25.1 0.0 0.0 0.0 25.1 0.0 0.0 0.0 25.1" Properties=species:S:1:pos:R:3:forces:R:3 energy=-38.9952754 stress="0.0003429849823458365 -7.729606610921782e-05 5.011280214531514e-05 -7.729606610921782e-05 0.0002486713167747155 3.160657779085226e-05 5.011280214531514e-05 3.160657779085226e-05 0.0002511213462839715" free_energy=-39.08454706 pbc="T T T"
Ag     12.55000000     12.55000000     12.55000000     -0.61939498      0.68094016      0.38779789
Ag     14.60000000     12.55000000     10.50000000     -0.17342107      1.35150294     -0.04407060
Ag     14.60000000     10.50000000     12.55000000     -0.27922126      0.14467949      1.64527159
Ag     14.60000000     14.60000000     12.55000000      0.00934412     -0.55972042     -0.26288351
Ag     14.60000000     12.55000000     14.60000000      1.14844910      0.15713138     -0.39544370
Ag     16.65000000     12.55000000     12.55000000     -0.24277266      0.15667087      1.21237847
Ag     10.50000000     12.55000000     10.50000000      0.44098785      0.26895502      0.64541415
Ag     12.55000000     14.60000000     10.50000000     -0.26407870     -0.44747663      0.61320565
Ag     12.55000000     10.50000000     10.50000000     -1.22949686      0.22826563     -0.06920860
Ag     12.55000000     12.55000000      8.45000000     -0.08153117      0.04027257      0.44270936
Ag     10.50000000     10.50000000     12.55000000      0.55066449      0.07680889     -0.31044305
Ag     12.55000000     10.50000000     14.60000000     -0.26800475     -0.48949279     -0.90113746
Ag     12.55000000      8.45000000     12.55000000     -0.12987248      0.40511845      0.32792905
O      16.86670084     12.36965922     14.73059315     -0.74785695      0.22737546     -1.43953729
O      10.93476712     14.17390999     12.26501289      0.81755041     -0.84120542     -1.21185850
Cl     14.98911296     10.15951574     10.27601356      1.25798205     -1.28526610     -1.66318201
Cl     13.81234482     11.18013359     16.43715128     -0.18932714     -0.11455951      1.02305856
17
Lattice="25.1 0.0 0.0 0.0 25.1 0.0 0.0 0.0 25.1" Properties=species:S:1:pos:R:3:forces:R:3 energy=-38.98031777 stress="0.0003417438208070999 -8.393445407588861e-05 4.910666463271363e-05 -8.393445407588861e-05 0.000257698636117809 3.737328283451133e-05 4.910666463271363e-05 3.737328283451133e-05 0.00020618233078139296" free_energy=-39.0590114 pbc="T T T"
Ag     12.54994786     12.55810085     12.55108457      0.01102768     -0.69708180      0.66332668
Ag     14.59842154     12.55132857     10.50683249      0.44401830     -0.16142870      1.30262228
Ag     14.60700134     10.50162556     12.53692024      0.44873436     -0.32352191      0.17750291
Ag     14.59827430     14.58746306     12.54767766      0.76397769      0.01536433     -0.51426363
Ag     14.59599756     12.54841254     14.60106795      0.76552990      1.13396036      0.16595969
Ag     16.65302649     12.55395054     12.55399880      0.86153585     -0.24672620      0.13995366
Ag     10.49425624     12.54907123     10.49849093      0.76724854      0.45440109      0.28585796
Ag     12.54719024     14.58876402     10.50638899      0.76469138     -0.29796222     -0.39917693
Ag     12.55244852     10.50599955     10.48885594      0.44783751     -1.24303314      0.23827796
Ag     12.55217806     12.54978145      8.44431826      0.86208619     -0.07950350      0.03889721
Ag     10.50682624     10.50604215     12.55963275      0.76496434      0.56934340      0.08773344
Ag     12.54836076     10.49740619     14.60975275      0.76948979     -0.26983162     -0.49315918
Ag     12.55198464      8.44635219     12.54486870      0.86252338     -0.12634982      0.42800523
O      16.84668373     12.33810167     14.69668157      1.00000000     -0.68794236      0.23787777
O      10.91946158     14.22580868     12.25654446      1.00000000      0.88541200     -0.93274853
Cl     14.99263020     10.14809822     10.29393256      1.00000000      1.28604350     -1.29024217
Cl     13.80677445     11.19972138     16.43869344      1.00000000     -0.21114340     -0.13642434
17
Lattice="25.1 0.0 0.0 0.0 25.1 0.0 0.0 0.0 25.1" Properties=species:S:1:pos:R:3:forces:R:3 energy=-39.02280523 stress="0.0003379637444276456 -8.734714274517518e-05 5.127143220888023e-05 -8.734714274517518e-05 0.00026861383720922665 4.305936006328223e-05 5.127143220888023e-05 4.305936006328223e-05 0.00015875229153761972" free_energy=-39.08996791 pbc="T T T"
Ag     12.54905078     12.56687251     12.55248750      0.00146965     -0.74648501      0.61911377
Ag     14.59673768     12.55440442     10.51371128      0.00297891     -0.14767111      1.21236754
Ag     14.61342875     10.50353081     12.52631118      0.00335732     -0.34773319      0.21263455
Ag     14.59703054     14.57469613     12.54529308      0.00502927      0.02360266     -0.46337403
Ag     14.59349641     12.54688087     14.60124170      0.00549392      1.08217492      0.16511740
Ag     16.65608830     12.55809977     12.55941904      0.00707737     -0.25291927      0.13715171
Ag     10.48923191     12.54848944     10.49696463      0.00283553      0.46441952      0.29105321
Ag     12.54380436     14.57695932     10.51287311      0.00297893     -0.31578147     -0.34398983
Ag     12.55316889     10.51202611     10.47794202      0.00303728     -1.21197188      0.24400492
Ag     12.55394861     12.54995097      8.43899926      0.00460718     -0.07834584      0.03232695
Ag     10.51422450     10.51158325     12.56913470      0.00505061      0.58282139      0.09609394
Ag     12.54657564     10.49398095     14.61817667      0.00452564     -0.25143723     -0.48169439
Ag     12.55367086      8.44325427     12.54016241      0.00426662     -0.12168692      0.45284659
O      16.81967749     12.30746056     14.65532130      0.10063012     -0.59724013      0.22629876
O      10.91119055     14.27150561     12.24062566      0.03577724      0.91397490     -0.98846087
Cl     14.99978542     10.13266272     10.30639875      0.02654846      1.25851151     -1.25235435
Cl     13.80171536     11.21922215     16.44347734      0.00690093     -0.25423285     -0.15913587
17
Lattice="25.1 0.0 0.0 0.0 25.1 0.0 0.0 0.0 25.1" Properties=species:S:1:pos:R:3:forces:R:3 energy=-39.38303856 stress="0.00028420404722460425 -7.696014184655365e-05 5.895479235793378e-05 -7.696014184655365e-05 0.0002899599544574755 7.144858969596069e-05 5.895479235793378e-05 7.144858969596069e-05 1.1233006253089374e-05" free_energy=-39.44865201 pbc="T T T"
Ag     12.54303165     12.58731975     12.55737910      0.01085596     -0.74491490      0.44840754
Ag     14.59364749     12.56765106     10.52712825      0.01052143     -0.08355330      0.84590223
Ag     14.62302237     10.50875447     12.51739024      0.01296131     -0.35868446      0.20350917
Ag     14.59456373     14.54860362     12.53937093      0.01631228      0.04483952     -0.32213592
Ag     14.59458646     12.54353044     14.59655784      0.01953389      0.54984417      0.11760385
Ag     16.66046606     12.56648454     12.57780031      0.02832641     -0.28847910      0.28894615
Ag     10.48220639     12.54902083     10.49704249      0.01007939      0.46252801      0.24874584
Ag     12.53396430     14.55165571     10.52932650      0.01135606     -0.24642993     -0.19339427
Ag     12.54696831     10.52362795     10.45697241      0.00997224     -0.95762301      0.22322357
Ag     12.55631566     12.55132199      8.43140541      0.01305462     -0.06231102      0.00803135
Ag     10.53170557     10.52221799     12.58682176      0.01670996      0.56411550      0.08301812
Ag     12.54243601     10.48509230     14.62740409      0.01411846     -0.09477317     -0.37824007
Ag     12.55634323      8.44157495     12.53200408      0.01006974     -0.09512552      0.49907705
O      16.73189760     12.25116387     14.53170716      0.13643255     -0.00299316     -0.00647072
O      10.94029295     14.32056031     12.15657715      0.05587806      0.77067021     -0.96217759
Cl     15.03659251     10.07851788     10.29643667      0.13957108      0.92141306     -0.92423416
Cl     13.79504156     11.25799262     16.47447653      0.05588622     -0.37852290     -0.17981213
17
Lattice="25.1 0.0 0.0 0.0 25.1 0.0 0.0 0.0 25.1" Properties=species:S:1:pos:R:3:forces:R:3 energy=-39.54961862 stress="0.00013023440567732942 -5.0403213323433366e-05 0.00013084302147370344 -5.0403213323433366e-05 0.0002664579013684732 0.00014055992146955187 0.00013084302147370344 0.00014055992146955187 -0.00024818811162120787" free_energy=-39.6321919 pbc="T T T"
Ag     12.53143992     12.61077768     12.56508465      0.00272347     -0.61149900      0.13815506
Ag     14.59123870     12.58860581     10.53922103      0.00509987      0.01098358      0.37996586
Ag     14.62745091     10.51587099     12.52525743      0.00643674     -0.29488275      0.05873442
Ag     14.59275147     14.52057582     12.53205446      0.00368579      0.08019356     -0.12643855
Ag     14.60031748     12.54084682     14.58519829      0.00634247     -0.41082485      0.07580002
Ag     16.66118156     12.57601170     12.59956910      0.00938045     -0.13609964      0.83770317
Ag     10.47829264     12.55202268     10.50135302      0.00708909      0.40095207      0.07318324
Ag     12.52088555     14.52415930     10.55028027      0.00908806      0.37708608      0.06331643
Ag     12.53207405     10.53592589     10.43676110      0.01054432     -0.57849498      0.15051796
Ag     12.55738792     12.55390914      8.42745258      0.00215558     -0.02992508     -0.02916817
Ag     10.55344079     10.53226376     12.60267877      0.00327726      0.49326756      0.05049677
Ag     12.53747846     10.47353366     14.62746933      0.00463591      0.15286326     -0.19583415
Ag     12.55815392      8.44523160     12.52564557      0.00344089     -0.04278236      0.53017665
O      16.63228458     12.19469772     14.40233016      0.10281958      0.79748544     -0.73721447
O      11.02415997     14.31094765     12.00422420      0.10539593     -0.06303631     -0.70050619
Cl     15.09847618     10.00017400     10.24087115      0.09892410      0.35798477     -0.39655033
Cl     13.79249090     11.29654110     16.53114953      0.03120289     -0.50327135     -0.17233772
17
Lattice="25.1 0.0 0.0 0.0 25.1 0.0 0.0 0.0 25.1" Properties=species:S:1:pos:R:3:forces:R:3 energy=-39.37090416 stress="-0.00014440567724953787 -4.570097269515719e-05 0.0002969204542271149 -4.570097269515719e-05 0.00016321998873596347 0.00017206093037504895 0.0002969204542271149 0.00017206093037504895 -0.0003088739865352054" free_energy=-39.45522792 pbc="T T T"
Ag     12.51414035     12.63598851     12.57535094      0.00911048     -0.31947266     -0.34914518
Ag     14.58904389     12.61440282     10.54848448      0.01064759      0.13519457     -0.04422970
Ag     14.62855919     10.52170095     12.54050310      0.00966509     -0.19448617     -0.07847271
Ag     14.59220281     14.48905504     12.52378032      0.01073697      0.14304113      0.09508029
Ag     14.60224175     12.53908801     14.57188017      0.01415548     -1.01454700      0.07587253
Ag     16.65875919     12.59016814     12.60450660      0.01687068      0.03956391      0.92166862
Ag     10.47709592     12.55626234     10.50970948      0.01862375      0.19057439     -0.37409434
Ag     12.51075675     14.49629974     10.57052448      0.02912109      2.53695251      0.66590269
Ag     12.51384943     10.54979200     10.41611754      0.00410547     -0.25382916      0.05221068
Ag     12.55786715     12.55694845      8.42748298      0.00616527      0.01217005     -0.06258660
Ag     10.58064467     10.54235076     12.61565308      0.00908516      0.39707187      0.01967161
Ag     12.53363996     10.46054316     14.62219057      0.00999989      0.36323943     -0.01240964
Ag     12.55943015      8.45312178     12.52116397      0.00935339      0.00872938      0.52370331
O      16.57195366     12.11494446     14.39028279      0.03830362      1.17707308     -1.02312326
O      11.11749870     14.24846104     11.82706806      0.11035385     -2.51716672     -0.26282737
Cl     15.15994647      9.91592277     10.17328452      0.08761082     -0.10076881      0.03795278
Cl     13.78873214     11.33548507     16.59490385      0.01936222     -0.60333980     -0.18517369
17
Lattice="25.1 0.0 0.0 0.0 25.1 0.0 0.0 0.0 25.1" Properties=species:S:1:pos:R:3:forces:R:3 energy=-39.30153677 stress="-0.00021071087021069581 -8.567439957491109e-05 0.000300732006537091 -8.567439957491109e-05 6.391636769039041e-05 8.107578048114283e-05 0.000300732006537091 8.107578048114283e-05 2.4311046294353718e-05" free_energy=-39.38275399 pbc="T T T"
Ag     12.49138760     12.66048608     12.58863677      0.01779459     -0.02632942     -0.70919164
Ag     14.58692957     12.64064194     10.55422628      0.00686960      0.23985584     -0.39699477
Ag     14.62809803     10.52396024     12.55258591      0.01239754     -0.06693131     -0.08582284
Ag     14.59239652     14.45624708     12.51489380      0.00587971      0.20839116      0.32583243
Ag     14.59506988     12.53784979     14.56199749      0.00967852     -0.43908575     -0.10493661
Ag     16.65526908     12.61071528     12.58430942      0.01432082     -0.10001979      0.01976594
Ag     10.47733377     12.55830051     10.52056828      0.00876573     -0.18602018     -1.05106306
Ag     12.51882306     14.47464378     10.57631645      0.01064450      3.66068075      1.29139826
Ag     12.49665802     10.56507069     10.39513365      0.00660468     -0.01646944     -0.05265254
Ag     12.55814521     12.55944819      8.43218594      0.01055461      0.02693815     -0.08583750
Ag     10.61291467     10.55262803     12.62439256      0.00880246      0.27785815     -0.03669300
Ag     12.53207166     10.44682818     14.61405533      0.01070006      0.52595499      0.14255700
Ag     12.56080149      8.46535566     12.51820700      0.01278763      0.01999351      0.49008064
O      16.58041915     11.98872337     14.53165976      0.06117708      0.64846349     -0.12684209
O      11.11649882     14.13905264     11.72535595      0.06893919     -3.73452079      0.30797791
Cl     15.20239783      9.84031130     10.12675490      0.05742243     -0.35713731      0.29366169
Cl     13.78043760     11.37608822     16.65347008      0.01305444     -0.68162204     -0.22123983
17
Lattice="25.1 0.0 0.0 0.0 25.1 0.0 0.0 0.0 25.1" Properties=species:S:1:pos:R:3:forces:R:3 energy=-39.3940969 stress="9.51422633566368e-05 -7.001403499695856e-05 9.627750024399808e-05 -7.001403499695856e-05 4.579661758100222e-05 -6.640379008081954e-05 9.627750024399808e-05 -6.640379008081954e-05 0.00031063821150472754" free_energy=-39.48466252 pbc="T T T"
Ag     12.46475293     12.68196478     12.60541081      0.00788168      0.06728191     -0.62873837
Ag     14.58554221     12.66001635     10.55644850      0.01614649      0.24724409     -0.70179255
Ag     14.62548418     10.52516808     12.56197898      0.00446002      0.00604981     -0.04854505
Ag     14.59248504     14.42491044     12.50566437      0.01342677      0.19863546      0.56938628
Ag     14.58735273     12.53528371     14.55720544      0.01497665      0.30428364     -0.38045000
Ag     16.65052366     12.63251240     12.56017136      0.00877854     -0.05924024     -0.49038595
Ag     10.47541726     12.55131648     10.52816396      0.01549282     -0.37461433     -1.51825950
Ag     12.55283208     14.46251160     10.56117955      0.01013902      0.96601487      0.75113860
Ag     12.48180226     10.58187800     10.37544464      0.01166367      0.14220756     -0.13921335
Ag     12.55844413     12.56169867      8.44101769      0.00392250      0.03511994     -0.05841102
Ag     10.64853621     10.56267610     12.62791024      0.01341050      0.14099923     -0.11374251
Ag     12.53339008     10.43271640     14.60558472      0.00343937      0.64611174      0.22983783
Ag     12.56290907      8.48160693     12.51603230      0.00245285     -0.00522098      0.43160809
O      16.61083578     11.84318267     14.68329393      0.07345175     -0.15327320      0.51042707
O      10.96864658     14.02827664     11.76916494      0.04839175     -0.97530711      1.37064838
Cl     15.22601221      9.78423977     10.10081420      0.02321015     -0.47057962      0.45203341
Cl     13.76852216     11.41978269     16.69860562      0.00756234     -0.71571278     -0.23554134
17
Lattice="25.1 0.0 0.0 0.0 25.1 0.0 0.0 0.0 25.1" Properties=species:S:1:pos:R:3:forces:R:3 energy=-39.07710598 stress="0.00032604567637440837 -2.7178957322605818e-05 2.437044673670475e-05 -2.7178957322605818e-05 0.00017684606448602598 -5.445100675382418e-05 2.437044673670475e-05 -5.445100675382418e-05 0.00046337617236562795" free_energy=-39.17906461 pbc="T T T"
Ag     12.42209161     12.70749859     12.63849938      0.02785537     -0.32537600      0.02549979
Ag     14.58759314     12.67266107     10.55041100      0.00612325      0.30356304     -1.02424884
Ag     14.61726150     10.52701181     12.57119233      0.00907847      0.05795146      0.01895220
Ag     14.59279139     14.38362086     12.49303393      0.00561100      0.08997260      0.84089512
Ag     14.58748006     12.52151836     14.56338666      0.00554833      0.49998902     -0.43623689
Ag     16.64245644     12.65791635     12.53924235      0.02128721      0.03387174     -0.72230796
Ag     10.46746801     12.51790763     10.52543378      0.01229197      0.09417149     -0.19489168
Ag     12.61988579     14.45185717     10.52426713      0.01364342     -0.75288152      0.37395690
Ag     12.46526682     10.60829778     10.35079057      0.00576794      0.27892214     -0.27034302
Ag     12.55918459     12.56582941      8.45887204      0.01384566      0.00201946      0.03336438
Ag     10.70451068     10.57753924     12.62216397      0.00640719     -0.09657845     -0.15502743
Ag     12.54355298     10.41293982     14.59534158      0.00934048      0.71120960      0.25020941
Ag     12.56774403      8.51252166     12.51286437      0.00917775     -0.02824767      0.30211026
O      16.58167770     11.67564794     14.78240231      0.07066320     -0.34426107      0.68681512
O      10.64670838     13.97786389     11.99567888      0.05117725      0.73736873      0.00012633
Cl     15.22603911      9.73909416     10.09792407      0.01916251     -0.52825754      0.52776050
Cl     13.75102749     11.49373206     16.72710781      0.02748582     -0.73343705     -0.25663420
17
Lattice="25.1 0.0 0.0 0.0 25.1 0.0 0.0 0.0 25.1" Properties=species:S:1:pos:R:3:forces:R:3 energy=-38.92045653 stress="0.00030491396744765186 -1.3679028713486518e-05 3.150046589420312e-05 -1.3679028713486518e-05 0.0002041187755172117 4.190243393170851e-06 3.150046589420312e-05 4.190243393170851e-06 0.00046466449474731977" free_energy=-39.01443079 pbc="T T T"
Ag     12.39112414     12.72353974     12.66396810      0.00466792     -0.51143260      0.37321302
Ag     14.59459187     12.66964598     10.53912531      0.01208161      0.35700196     -1.11544485
Ag     14.60981751     10.52942354     12.57548178      0.01246531      0.14446205      0.04166069
Ag     14.59293885     14.36120843     12.48818308      0.01015716     -0.00221929      0.89811693
Ag     14.59261196     12.50532772     14.57602921      0.00987677      0.30836738     -0.24636972
Ag     16.63784297     12.66762514     12.53631478      0.00425677      0.08377016     -0.81155417
Ag     10.46132673     12.49162880     10.52243787      0.00442418      0.13062854      0.50933748
Ag     12.65896642     14.44707109     10.50161223      0.00814947     -0.86852096      0.39923861
Ag     12.45932578     10.62543119     10.33769933      0.01097021      0.34016118     -0.36713090
Ag     12.55883148     12.56844306      8.47191084      0.00297168     -0.03417841      0.08609216
Ag     10.74146810     10.58724374     12.61103848      0.01198055     -0.27713630     -0.14174397
Ag     12.55699761     10.40144684     14.59267141      0.01280846      0.66842374      0.24771701
Ag     12.57219439      8.53670542     12.51048455      0.01198687      0.00798764      0.18147326
O      16.51777432     11.61591193     14.73850071      0.03030009     -0.10300284      0.58924465
O      10.46379251     13.95898815     12.14085293      0.06001620      1.05550914     -0.87346291
Cl     15.20177283      9.73022168     10.11631479      0.00965264     -0.52160880      0.53009542
Cl     13.73226045     11.54532211     16.71943205      0.01648471     -0.77821261     -0.30048272
17
Lattice="25.1 0.0 0.0 0.0 25.1 0.0 0.0 0.0 25.1" Properties=species:S:1:pos:R:3:forces:R:3 energy=-39.2940573 stress="0.00010615442629232504 4.557115554684794e-05 8.396326488201368e-05 4.557115554684794e-05 0.0001126739696837299 5.138957773512407e-05 8.396326488201368e-05 5.138957773512407e-05 0.00027446423464875467" free_energy=-39.37491409 pbc="T T T"
Ag     12.34070238     12.75149919     12.70601978      0.01731588     -0.47671310      0.67437677
Ag     14.61623320     12.64827849     10.51065339      0.00760568      0.35376917     -0.96901102
Ag     14.60005578     10.53467211     12.57957835      0.00908130      0.26073199      0.06592761
Ag     14.59167688     14.33850471     12.49131044      0.00381536     -0.13150469      0.81524322
Ag     14.60570618     12.47551880     14.59898371      0.01763785     -0.81889358      0.46733473
Ag     16.63120564     12.67020258     12.54865412      0.01353170      0.19884528     -0.69663835
Ag     10.45092001     12.46149212     10.52712899      0.01065651      0.06576112      0.81597248
Ag     12.70314828     14.44578427     10.47160925      0.01591671     -0.73120866      0.35766764
Ag     12.45965183     10.64605449     10.32163209      0.00475386      0.37302874     -0.49085734
Ag     12.55568027     12.57158080      8.49283800      0.00987458     -0.10466949      0.13760529
Ag     10.79229871     10.59968363     12.58429725      0.00473234     -0.53095964     -0.16240243
Ag     12.58800644     10.38816055     14.59865247      0.00480944      0.48426120      0.23845978
Ag     12.57987258      8.57613564     12.50720453      0.00475813      0.06870466     -0.00437811
O      16.40518454     11.60065103     14.47703786      0.03894435      1.07748851     -0.13840655
O      10.29617073     13.84995808     12.27563594      0.05367237      1.17715439     -1.19034977
Cl     15.13005978      9.73980597     10.17360060      0.04220645     -0.40440251      0.43112722
Cl     13.66534407     11.61365885     16.68400511      0.01814661     -0.86139341     -0.35167116
17
Lattice="25.1 0.0 0.0 0.0 25.1 0.0 0.0 0.0 25.1" Properties=species:S:1:pos:R:3:forces:R:3 energy=-39.82032864 stress="6.808640731852078e-05 -2.7503740491480275e-05 0.0001406771931845181 -2.7503740491480275e-05 -0.0002699123207677754 0.00024977824217668174 0.0001406771931845181 0.00024977824217668174 -0.0003869370092858117" free_energy=-39.90453604 pbc="T T T"
Ag     12.26945903     12.80165367     12.76980267      0.01653682      0.12810025      0.73475042
Ag     14.66453033     12.59550340     10.45452455      0.02643280      0.16814252     -0.37365627
Ag     14.58909723     10.54091569     12.57958325      0.02556531      0.25244155      0.14324125
Ag     14.58553929     14.32598409     12.51533821      0.01346184     -0.28149775      0.58839705
Ag     14.60255347     12.45177960     14.62592669      0.01496387      0.04901472      0.17786318
Ag     16.62646723     12.66687387     12.57204399      0.02368312      0.79608928      2.51566338
Ag     10.43338356     12.43851273     10.54757685      0.01023781      0.13852575      0.49928909
Ag     12.73927259     14.45312268     10.43780359      0.01138264     -0.30667719      0.15730658
Ag     12.47543922     10.65969979     10.30692194      0.01860071      0.21182549     -0.53811795
Ag     12.54596961     12.57719512      8.51755074      0.02286572     -0.17803852      0.17420409
Ag     10.84643124     10.61081844     12.53617147      0.01583264     -0.74181100     -0.19651232
Ag     12.64350086     10.38037178     14.62130149      0.01480379      0.07193335      0.08549588
Ag     12.58699359      8.62614148     12.50631779      0.01536816      0.11635779     -0.26910841
O      16.43544406     11.50322454     13.95499317      0.05790009     -0.44626325     -2.87895216
O      10.26831080     13.55369801     12.33381177      0.04952916      0.55440931     -0.61613596
Cl     14.99929771      9.79020048     10.28424662      0.05406919     -0.01674560     -0.01559863
Cl     13.51058259     11.67702527     16.62356608      0.02974443     -0.51580670     -0.18812924
17
Lattice="25.1 0.0 0.0 0.0 25.1 0.0 0.0 0.0 25.1" Properties=species:S:1:pos:R:3:forces:R:3 energy=-40.13369457 stress="-4.779562939931273e-05 -1.6742504947179918e-05 6.823689010354582e-05 -1.6742504947179918e-05 -7.966569249791416e-05 -0.0001309554310530606 6.823689010354582e-05 -0.0001309554310530606 -0.00035287790538205316" free_energy=-40.21271412 pbc="T T T"
Ag     12.21441099     12.86846172     12.84199848      0.01468358      1.54718903      0.55699108
Ag     14.72805117     12.52983753     10.38911900      0.01587067     -0.07204562      0.20859080
Ag     14.57853316     10.55233377     12.59010936      0.01654543      0.56545895      0.26984662
Ag     14.57184447     14.32986899     12.55305815      0.00914172     -0.34934027      0.31788800
Ag     14.59741183     12.44256633     14.64641686      0.01325687      0.76751305     -0.03457485
Ag     16.64373325     12.71363372     12.52800517      0.01274405      0.15702682     -0.90199564
Ag     10.41288369     12.42634440     10.55739405      0.00767723      0.32072519      0.05225450
Ag     12.76220176     14.46667175     10.41138631      0.00859112      0.03481100     -0.05369180
Ag     12.50067568     10.65819879     10.29668380      0.00774885     -0.16894182     -0.34851532
Ag     12.52700629     12.58637303      8.52706797      0.00858210     -0.21147899      0.19434272
Ag     10.88191907     10.61061584     12.48880255      0.01163318     -0.80564837     -0.06578946
Ag     12.69940110     10.37728494     14.65095984      0.00665804     -0.33719366     -0.20406912
Ag     12.59492481      8.66764683     12.50680417      0.00539764      0.10616087     -0.56307700
O      16.42279280     10.97762418     13.84091044      0.04110074     -0.81933501      1.07773068
O      10.28187794     13.19427416     12.39687828      0.05436800     -1.01091515      0.06847625
Cl     14.86420016      9.84058669     10.36895989      0.03916212      0.54772851     -0.60063416
Cl     13.32771734     11.71792815     16.57118059      0.01770879     -0.27171454      0.02622670
17
Lattice="25.1 0.0 0.0 0.0 25.1 0.0 0.0 0.0 25.1" Properties=species:S:1:pos:R:3:forces:R:3 energy=-39.95198897 stress="-5.072968169977181e-05 -4.6059572360475686e-05 -1.1054336812851838e-06 -4.6059572360475686e-05 5.915553177444043e-05 -0.00012934605168344248 -1.1054336812851838e-06 -0.00012934605168344248 -0.00021885442931061903" free_energy=-40.03809916 pbc="T T T"
Ag     12.20564066     12.93123906     12.90509802      0.01626071      0.82298167      0.54094995
Ag     14.77603057     12.48390480     10.34108636      0.00642278     -0.16278613      0.42761308
Ag     14.57775372     10.57251295     12.62110503      0.01385673      0.00529930      0.05821890
Ag     14.55547949     14.34221892     12.58343221      0.01607584     -0.25466180      0.16258300
Ag     14.61012380     12.43712858     14.65452180      0.00736004      0.57087053     -0.01400254
Ag     16.66461542     12.73578072     12.50064272      0.01209481     -0.08230655     -1.20563016
Ag     10.39671602     12.41775385     10.52972634      0.01591517      0.33476529      0.50959246
Ag     12.77810495     14.47660317     10.39773749      0.01764228      0.12242964     -0.20052094
Ag     12.51355692     10.65040906     10.28733184      0.01606491     -0.40597021     -0.15276480
Ag     12.50461702     12.59542671      8.52021354      0.01927044     -0.22462580      0.17401112
Ag     10.89252370     10.60388347     12.46331478      0.00777068     -0.82876509      0.34012702
Ag     12.73466342     10.36985929     14.67319748      0.01347385     -0.48573077     -0.34434586
Ag     12.60612779      8.69008269     12.50613302      0.01280666      0.10457158     -0.68760161
O      16.30896467     10.64796858     13.74353333      0.06293949      0.03057054      1.61929566
O      10.17268351     12.94683756     12.56252368      0.03082056     -0.29294874     -0.73165048
Cl     14.79783246      9.83614243     10.36397068      0.01075100      0.77352712     -0.73025708
Cl     13.18145979     11.74862775     16.55833741      0.00418884     -0.02722056      0.23438227
17
Lattice="25.1 0.0 0.0 0.0 25.1 0.0 0.0 0.0 25.1" Properties=species:S:1:pos:R:3:forces:R:3 energy=-39.83933587 stress="-6.945948315263296e-05 -2.2931797607716037e-05 -9.141472175949505e-05 -2.2931797607716037e-05 0.00010081289909183027 -9.364235381557754e-05 -9.141472175949505e-05 -9.364235381557754e-05 -0.0001098897073607829" free_energy=-39.93034819 pbc="T T T"
Ag     12.20795054     12.97846542     12.94871249      0.00527685      0.03740934      0.36200266
Ag     14.80548532     12.45704691     10.31136395      0.01283338     -0.18529936      0.43638559
Ag     14.57819534     10.58774191     12.64765912      0.00552034     -1.31136337     -0.05675966
Ag     14.54348720     14.35318104     12.60310409      0.00353148     -0.14857747      0.09305539
Ag     14.62476214     12.43362621     14.65831658      0.01240136      0.35130487      0.01703725
Ag     16.68007001     12.73879307     12.48994673      0.00373921     -0.21150162     -1.05173140
Ag     10.38766824     12.41613822     10.50605835      0.00498866      0.31284564      0.59487550
Ag     12.78985382     14.48197159     10.39189407      0.00374516      0.12400967     -0.28671508
Ag     12.51737559     10.64308853     10.27997199      0.00352930     -0.40736740     -0.07208311