32
Lattice="29.7 0.0 0.0 0.0 29.7 0.0 0.0 0.0 29.7" Properties=species:S:1:pos:R:3:forces:R:3 energy=-80.25158325 stress="-0.0007002793546193282 -6.365686446546357e-05 -0.00010230505043704605 -6.365686446546357e-05 -0.0005785261736856322 2.7715939318742056e-05 -0.00010230505043704605 2.7715939318742056e-05 -0.0003533604926261573" free_energy=-80.3382714 pbc="T T T"
Ag     13.81170029     14.85205062     14.85337521      0.04632401      0.15801404      0.01192270
Ag     15.90186737     14.85085322     12.79170824      0.03895987      0.13991013     -0.08868935
Ag     15.87479809     12.75553251     14.82686373      0.03714482      0.10784003     -0.15141326
Ag     15.91211401     16.90802772     14.83504243      0.03814879      1.06179486     -0.54751498
Ag     15.83106960     14.86181121     16.93210911      0.03232912     -0.18823867     -0.11460926
Ag     11.81276442     14.83248507     12.81907088      0.03404858      0.06662707      0.00297119
Ag     13.80808005     16.93658420     12.80927211      0.03294241     -0.60164269      0.28527348
Ag     13.82669354     12.80173582     12.80340673      0.03233067      0.04482035      0.01410292
Ag     11.75330914     12.77207516     14.85759928      0.02401514     -0.90728864      3.06519181
Ag     13.81224126     12.81925487     16.89020073      0.01689582      0.05034352      0.04727619
Ag     13.81589087     14.83350606     10.77711828      0.03096899      0.08820382     -1.50968479
Ag     13.82199802     10.75263304     14.82247061      0.01658495      4.07679907     -0.32459293
Ag     17.90272637     14.84931536     14.83974655      0.03659706     -0.18225374      0.00886349
Ag     17.90053673     12.81028152     12.78370363      0.01447544     -0.10495125      0.14337285
Ag     15.87507103     12.81330249     10.77513008      0.01441923     -0.08685311      0.23030652
Ag     15.84915769     10.79185188     12.82436620      0.01172754     -0.01960975      0.12228474
Ag     11.83257774     16.95296339     14.84595973      0.02168014     -0.01527741     -0.04433891
Ag     11.76510893     14.87512868     16.94043522      0.01667270     -2.57117476     -2.96906469
Ag     13.83180126     16.93385483     16.95490128      0.02189847      0.35161278      0.43332884
Ag     13.80337626     14.86173055     18.92518532      0.00925540      1.87437085     -2.06016457
Ag     17.92185761     16.90802144     12.79159385      0.01690582     -0.21841034     -0.11238393
Ag     17.93587324     14.85645777     10.73870594      0.01425754     -0.21283964     -1.17341477
Ag     15.88216096     16.94772314     10.72146828      0.01743681      1.30931364      0.34313950
Ag     13.86161357     18.92347750     14.84734952      0.01679776     -1.60786475      0.94418251
Ag     15.85629065     18.91470799     12.81554029      0.01219753      0.05191738     -0.07237814
O      15.04508614     18.19991295     16.22556814      0.01091918      2.57903888      1.01103406
Cl     17.71551713     13.20724677     17.04514948      0.00630980      0.29722819      0.20034820
Cl     18.32816250     17.19897457     10.32166112      0.00951471      0.37472520      0.73450209
O      13.91913853     16.85803184     10.69299908      0.00834096     -1.19833968      1.07431955
O      12.54882069     16.09874628     18.09855991      0.01718790     -1.41044434      3.30627260
Cl      9.88702029     15.17705975     14.86615254      0.05027787      0.22325299     -0.28710485
O      11.99166964     10.91184166     14.73492667      0.01639111     -3.53062407     -2.52333878
32
Lattice="29.7 0.0 0.0 0.0 29.7 0.0 0.0 0.0 29.7" Properties=species:S:1:pos:R:3:forces:R:3 energy=-80.84686928 stress="-0.0006443821028199091 0.00019645473283890277 8.071501501215764e-05 0.00019645473283890277 -0.0005204951870934205 4.110904449917187e-05 8.071501501215764e-05 4.110904449917187e-05 -0.0003987107861310768" free_energy=-80.9083842 pbc="T T T"
Ag     13.81452928     14.92036421     14.87035779      0.01029415      0.53769726      0.07115027
Ag     15.93114778     14.88677861     12.77448495      0.00592455     -0.14451130      0.08092964
Ag     15.93547056     12.63843247     14.86266329      0.00939294      0.19644517      0.55828778
Ag     16.12783460     16.85927202     14.83386368      0.01045146     -0.20162283     -0.02897078
Ag     15.71852814     14.86138095     17.01458105      0.01004571      0.20289224     -0.02026054
Ag     11.97872371     14.77569197     12.92606275      0.01391783     -0.73649466      0.55109029
Ag     13.69470131     17.05851138     12.80330648      0.00895010     -0.37950163     -0.07524995
Ag     13.78381451     12.79232984     12.80895205      0.00887090      0.19413290     -0.66183387
Ag     11.53697632     12.90677463     14.88977737      0.01250059     -1.55304789      1.96444702
Ag     13.78068613     12.86109362     16.82744703      0.00700724     -0.01362281     -0.15222927
Ag     13.78074137     14.63312147     10.92822844      0.01377181      0.09090757     -1.21888997
Ag     14.06512733     10.72243946     14.78380833      0.01280305      4.49864496     -1.68716278
Ag     17.79831737     14.82475450     14.81521683      0.01211840      0.45669621      0.10717455
Ag     17.87070832     12.84850515     12.73480492      0.00484797      0.06049539     -0.34901139
Ag     15.84855344     12.86152001     10.81544546      0.00650102     -0.14324314     -0.22815888
Ag     15.81542042     10.89311432     12.83003820      0.00697095      0.58611785     -0.37501289
Ag     11.88018568     17.02575746     14.82505552      0.00547376     -0.17443729     -0.15071515
Ag     11.44041797     14.70461644     16.76400611      0.01073750      0.12977150      0.88547522
Ag     13.89248664     17.10696384     17.15724673      0.01477436     -0.14603477     -0.54907994
Ag     13.90156018     14.66361228     18.98191830      0.01041312      0.81468926     -1.18618260
Ag     17.95216410     16.89418111     12.91267759      0.00648094      0.22391091     -0.06430745
Ag     17.93919032     14.61037489     10.73481948      0.00868698      0.14690826      0.77628238
Ag     15.91182725     17.14691169     10.57250200      0.01148118      1.18056322     -0.11828692
Ag     13.82233314     18.99902056     14.64928221      0.00809521     -0.52078624      0.28307402
Ag     15.79900594     18.81309122     12.84864424      0.00520490      0.51197911      0.15645240
O      15.15663495     18.13330015     16.07563176      0.01155060      0.54451309      1.27680947
Cl     17.89407025     13.43360670     16.73696806      0.00764340      0.38656317     -0.41216609
Cl     18.50800372     17.40345473     10.18199899      0.01598867     -0.78005137     -0.46037359
O      13.96535327     16.59724706     10.78616587      0.00977582     -0.13261275      1.72252118
O      12.62518010     15.87876661     18.08240285      0.01106107     -1.70680731      0.92328514
Cl      9.81604955     15.17999946     14.91335944      0.01860635      0.04286548     -0.46179525
O      12.33580690     11.21780675     14.73233003      0.06037355     -4.17301955     -1.15729206
32
Lattice="29.7 0.0 0.0 0.0 29.7 0.0 0.0 0.0 29.7" Properties=species:S:1:pos:R:3:forces:R:3 energy=-79.76716564 stress="0.0004372555066058794 -5.741824515830559e-05 0.00020276268907094017 -5.741824515830559e-05 0.00044459940979810366 3.715431196984797e-05 0.00020276268907094017 3.715431196984797e-05 0.0003741157074809315" free_energy=-79.83441418 pbc="T T T"
Ag     14.06228343     15.15151680     14.99949236      0.02655300     -0.53798024      0.21876749
Ag     15.73653905     15.03865500     12.73265389      0.01762428      0.60019005     -0.22302643
Ag     16.08448642     12.66466769     15.14448671      0.01713770     -0.01714561     -0.17702928
Ag     16.16001799     17.09542091     15.17944739      0.01732751      0.14346251      0.23196492
Ag     15.75551966     14.81316679     17.01466513      0.01856175      0.31074199     -0.22570447
Ag     12.00962428     14.95014091     12.96015572      0.01474711     -0.03519054     -0.26764139
Ag     13.46603745     17.21613705     12.50549902      0.01946903     -0.17838988      0.54304322
Ag     13.71402228     12.36151100     13.16390206      0.01866494      3.12023769      2.01995503
Ag     10.87410732     12.95121796     14.62960425      0.01734054     -1.32856044      1.72539872
Ag     13.67270069     12.85514204     16.59334701      0.02380971     -0.15071802      0.09847868
Ag     13.74229068     14.62103016     10.91102108      0.01637088      0.18075706     -1.63911593
Ag     14.44579531     10.38506167     14.96488124      0.01115159      0.14120649      0.28869111
Ag     17.92560681     14.74845065     14.65996329      0.01401033     -0.31006960      0.57277636
Ag     17.94507180     12.81776015     12.80469331      0.00767234     -0.32571711      0.00257577
Ag     15.80078970     12.80744593     10.72600906      0.00933350      0.05219548      0.31578818
Ag     16.03809889     10.80692555     12.58523743      0.00540692     -0.14548166      0.09102518
Ag     11.77464763     17.02068724     14.85273903      0.01047341      0.37232526     -0.03615962
Ag     10.95096675     14.92379184     16.90312288      0.02259721      1.02733407      0.37226176
Ag     14.10072490     17.27280996     17.33149852      0.02108161     -0.74469341     -1.25242669
Ag     14.05304177     14.12521309     19.34782390      0.01734136     -0.18669397      0.13110765
Ag     18.11314415     16.83954146     12.78964716      0.00792121     -0.68792172     -0.29164915
Ag     17.99523798     14.64933024     10.61361747      0.00938168     -0.42086553     -0.38200548
Ag     16.00635726     17.30333568     10.30420122      0.01006152     -0.40506801     -0.59848191
Ag     13.64614961     19.21039356     14.51761767      0.00691298      0.48018323     -0.81406033
Ag     15.91709795     18.65871449     12.75034643      0.00756381     -0.10005718     -0.12642623
O      15.13865964     18.69232082     16.29386509      0.00291513     -0.17270534     -0.14975881
Cl     18.27974428     13.44430489     16.85379971      0.00570040     -0.34216923      0.27228510
Cl     18.50687328     17.12201405     10.36644505      0.01291398      0.25527596      0.41228292
O      13.97473299     16.58184830     10.63340725      0.00755234      0.70897806      1.54391350
O      12.75672902     15.37196377     18.17072281      0.04015873     -0.06680214      0.47587913
Cl      9.42624532     15.22206280     14.63431367      0.01107739      0.61635179     -0.75140508
O      12.42739595     11.82621340     14.39117846      0.05128321     -1.85300998     -2.38130395
32
Lattice="29.7 0.0 0.0 0.0 29.7 0.0 0.0 0.0 29.7" Properties=species:S:1:pos:R:3:forces:R:3 energy=-79.33641027 stress="0.0009059341842569471 -0.00015980522164413797 5.599774009634582e-05 -0.00015980522164413797 0.0006173908214352095 -3.293614406484791e-05 5.599774009634582e-05 -3.293614406484791e-05 0.0007003594269399041" free_energy=-79.43053075 pbc="T T T"
Ag     14.11082311     15.36687764     14.97331825      0.01502791     -0.10973310     -0.20476154
Ag     15.73200712     15.08898423     12.73932206      0.00962430      0.36433421     -0.22099517
Ag     16.06530996     12.64719069     15.17078394      0.00684948      0.05666188      0.14159143
Ag     16.19755754     17.39005626     15.37953094      0.01041527      0.00367071      0.19453071
Ag     15.89270602     14.72723160     17.12148301      0.01004538     -0.30988679     -0.14872271
Ag     11.96316753     14.98619145     13.03606391      0.00848597      0.51602388     -0.51764745
Ag     13.34334980     17.40382701     12.45173957      0.01053204      0.10081438     -0.55230755
Ag     13.94545607     12.33292297     13.18258976      0.01438066     -0.07034563      0.92116646
Ag     10.58100279     12.88156586     14.37789745      0.02955137      1.16654234     -0.71163458
Ag     13.56405636     12.96686691     16.45660929      0.01463518     -0.53494489     -0.62535403
Ag     13.72777986     14.65979498     10.82746627      0.01052754      0.19723884      0.81041637
Ag     14.47492690     10.36675231     15.05003962      0.01042269     -0.91078430      0.49417471
Ag     18.06314002     14.80874368     14.67031757      0.00957602     -0.57895137      0.48874392
Ag     17.88636017     12.84613341     12.75020485      0.00711071     -0.36958818      0.17124232
Ag     15.81496743     12.81715131     10.79747359      0.00743061     -0.08987786      0.16271577
Ag     16.11842678     10.66777038     12.64767779      0.00481022     -0.18493353      0.15997037
Ag     11.76459421     16.99955517     14.80316209      0.00543522      0.18167991      0.32419301
Ag     11.05462631     15.26778313     16.99542782      0.01416414      1.00914677      0.00616016
Ag     14.11213719     16.99156848     17.23175532      0.01813080     -0.52591504      0.10946883
Ag     14.04416674     13.80180472     19.28975734      0.01220620     -0.16453296      0.53236242
Ag     18.05709451     16.74974903     12.76724727      0.00870145     -0.16472801      0.00744318
Ag     17.89392243     14.74145004     10.66245131      0.00724134     -0.19981242      0.09196739
Ag     15.99993380     17.15746443     10.25722534      0.00794456     -0.48531664     -0.32692483
Ag     13.58818916     19.11521609     14.46422319      0.00698189      0.60081765     -0.34762481
Ag     15.92750211     18.48537669     12.78098947      0.00887158     -0.20338993     -0.12194434
O      14.79108230     18.68890733     16.62661197      0.00617924      0.76636783      0.54758299
Cl     18.27809401     13.65381978     16.76643788      0.00402257      0.04894153     -0.16129369
Cl     18.84373253     17.08698337     10.10925541      0.00452936     -0.75798513     -0.22816150
O      13.78831707     17.02082982     10.27807165      0.00598025      0.90845111     -0.68215045
O      13.03841466     15.59433229     18.06137506      0.02635206     -1.18673699     -1.51727090
Cl      9.52876010     15.07521818     14.67905554      0.03717554      0.00880258      0.07458911
O      12.16258838     11.24214303     15.86781770      0.05525017      0.91796917      1.12847444
32
Lattice="29.7 0.0 0.0 0.0 29.7 0.0 0.0 0.0 29.7" Properties=species:S:1:pos:R:3:forces:R:3 energy=-80.34123239 stress="0.0004922933213231919 -2.3175041701369958e-05 -6.942456815058276e-05 -2.3175041701369958e-05 0.000360121938186754 -7.864300250311081e-05 -6.942456815058276e-05 -7.864300250311081e-05 0.00025463635201235864" free_energy=-80.45338294 pbc="T T T"
Ag     14.11638269     15.47277372     14.91669104      0.00766913      0.21304469     -0.48327342
Ag     15.78594880     15.08514637     12.76298050      0.00920796     -0.02243701     -0.38987376
Ag     16.04671440     12.64289407     15.10543931      0.00798680      0.31213592      0.31216475
Ag     16.26752213     17.49733574     15.43491413      0.00613525     -0.03713894     -0.03856213
Ag     15.92912414     14.67154063     17.15159977      0.00491120     -0.28363789     -0.06389842
Ag     12.00674971     14.91233221     13.09047393      0.01012439      0.47039921     -0.61792094
Ag     13.30050461     17.42399932     12.39268480      0.00661742     -0.39857432     -0.07807775
Ag     14.06738477     12.46567611     13.19454348      0.00838046     -0.41486596      0.87254870
Ag     10.59052047     12.75638652     14.32257008      0.01854167      1.12876966     -0.31994891
Ag     13.50736405     13.04411706     16.40701180      0.00904391     -0.10938454     -0.10044522
Ag     13.73444305     14.74600895     10.82275787      0.00672380      0.18227823     -1.01703467
Ag     14.38877958     10.45188985     15.07432659      0.00634530     -0.91816537      0.38483202
Ag     18.05033152     14.89497768     14.65603545      0.00966521     -0.50950853     -0.09228884
Ag     17.80878856     12.89429536     12.70122979      0.00609455     -0.05640711      0.05461874
Ag     15.80827861     12.83820402     10.88792784      0.00585949     -0.38516424      0.00649798
Ag     16.11760367     10.60363859     12.76989989      0.00518567     -0.14258135      0.26456808
Ag     11.76441136     17.01307617     14.77774231      0.00762057      0.06522480      0.54165448
Ag     11.25620950     15.44575465     16.96050917      0.01324409     -0.68426389     -0.41172432
Ag     14.02941699     16.81668074     17.18745485      0.01366945     -0.26745541      0.39214139
Ag     13.99992642     13.71838242     19.08949255      0.01372857      0.79656780     -0.62893301
Ag     17.98821253     16.71032439     12.74359429      0.00952677      0.31151644      0.43498152
Ag     17.79648980     14.81418686     10.72399316      0.00678928     -0.01600895     -0.59936801
Ag     16.03445445     17.03247258     10.28859254      0.00594017     -0.08691292     -0.10516180
Ag     13.57657543     19.02856988     14.47365934      0.00720113      0.64081418     -0.27442301
Ag     15.89201572     18.37619326     12.81777197      0.00981850     -0.26370516      0.04892013
O      14.96190753     18.66065546     16.67487648      0.00385894     -0.35342983     -0.86918547
Cl     18.27325579     13.73736094     16.86573535      0.00479624      0.04334384      0.00254570
Cl     18.69603901     16.99171680     10.03202268      0.00817739     -0.45102509      0.29946585
O      13.91445456     16.77244844     10.57316417      0.00434209      0.71314233      0.74218609
O      12.83883570     15.00249357     18.09143818      0.02116346      0.24528813      1.41788116
Cl      9.74740260     15.14606995     14.92100693      0.05126924     -0.16112337      0.03499127
O      12.31685136     11.38070565     15.79168607      0.01336019      0.43926464      0.28012182
32
Lattice="29.7 0.0 0.0 0.0 29.7 0.0 0.0 0.0 29.7" Properties=species:S:1:pos:R:3:forces:R:3 energy=-80.79043563 stress="-0.00037581948343456945 5.78315391680942e-05 -0.00020645853628474068 5.78315391680942e-05 -8.519085737991066e-06 -2.2385846562965904e-05 -0.00020645853628474068 -2.2385846562965904e-05 -0.0002140151937985388" free_energy=-80.90375689 pbc="T T T"
Ag     14.13959233     15.53367067     14.84159115      0.01210193      0.27630235     -0.33221640
Ag     15.82557583     15.05847853     12.80123516      0.01067392     -0.30622832     -0.32601004
Ag     16.06793644     12.66006302     15.04674401      0.00864588      0.44747626      0.20053245
Ag     16.34300437     17.54922524     15.45071732      0.00943950      0.85788868     -0.88305002
Ag     15.93575488     14.62029224     17.13714278      0.00805160     -0.32430532      0.05232520
Ag     12.09422893     14.79944016     13.11721097      0.00528419      0.17316853     -0.34909687
Ag     13.25276701     17.40826769     12.37464686      0.00749906     -0.07567842     -0.35553138
Ag     14.14018241     12.64147870     13.18723994      0.01424737     -0.78026153      0.55450096
Ag     10.67992365     12.62792782     14.32299491      0.01519424      0.89629960      0.02030069
Ag     13.45382261     13.14463632     16.36815492      0.01266626      0.40102962      0.53383292
Ag     13.74174841     14.76766430     10.86416592      0.00758120      0.15146709     -0.63653748
Ag     14.24988781     10.55683349     15.08727265      0.01391474      0.99770371     -0.68919352
Ag     17.99701166     14.95546649     14.66542950      0.00949696     -0.40619590     -0.18423377
Ag     17.73968384     12.94410072     12.68914435      0.00663755      0.35551855     -0.23139244
Ag     15.77156739     12.84356294     10.96273549      0.00576016     -0.49842738     -0.25266896
Ag     16.10332600     10.57625152     12.90901269      0.00568257     -0.12136295      0.36121748
Ag     11.76656651     17.06384420     14.74390448      0.00887806     -0.12421318      0.43449111
Ag     11.40914209     15.55977175     16.86142700      0.01295019     -1.40863771     -0.30600118
Ag     13.93088821     16.69006385     17.20730229      0.00712968      0.14594853      0.43559964
Ag     14.01562647     13.60988842     18.93497648      0.00720354      1.04988755     -0.77191357
Ag     17.94804298     16.71143068     12.72431446      0.00927561      0.63240304      0.68007193
Ag     17.71064903     14.83978397     10.76833240      0.00767582      0.35930547     -1.43521846
Ag     16.08511447     16.92436877     10.33249254      0.00711042      0.52017865      0.60158536
Ag     13.63312123     18.94133746     14.56741406      0.00707322      0.20508454     -0.05574161
Ag     15.83101609     18.29532715     12.86286819      0.01059133     -0.24403080      0.12967925
O      14.76496174     18.44349081     16.33087071      0.00388379     -0.58291701      0.19427956
Cl     18.24943586     13.81037726     16.94949628      0.00564805      0.26781194      0.03730725
Cl     18.45592540     16.96187554      9.96257689      0.01926058      0.43912302      0.79453668
O      14.14300692     16.78186937     10.44986007      0.00463771     -1.31061529      0.60243983
O      12.81022860     14.89330356     17.98784383      0.01748534      1.00250326      1.02394210
Cl      9.88396585     15.21295754     15.19344004      0.05911850     -1.09019724     -0.08801841
O      12.58240318     11.68085029     15.22443214      0.00953254     -1.90602932      0.24018170
32
Lattice="29.7 0.0 0.0 0.0 29.7 0.0 0.0 0.0 29.7" Properties=species:S:1:pos:R:3:forces:R:3 energy=-80.17276515 stress="-0.0002578146907384957 -9.061962839496704e-05 0.0001217161001279791 -9.061962839496704e-05 3.2875008482959885e-05 9.167320137692525e-05 0.0001217161001279791 9.167320137692525e-05 -0.000132635826313513" free_energy=-80.27553124 pbc="T T T"
Ag     14.21683269     15.59789686     14.70454816      0.00986518     -0.42156259      0.82534586
Ag     15.83619577     14.99564992     12.88213335      0.00923932      0.96328538      0.40995119
Ag     16.19212648     12.70517060     14.99386710      0.00916205     -0.24856404     -0.23851024
Ag     16.51096652     17.49490345     15.40518020      0.01019914     -0.65566931     -0.03672426
Ag     15.89080300     14.55559544     17.04523425      0.00919753     -0.28776466      0.27549764
Ag     12.25012377     14.58963438     13.16411154      0.01380979     -1.68282614      1.17752277
Ag     13.18766228     17.30632526     12.30587825      0.00985292     -0.16138101      0.11302463
Ag     14.15582412     12.97346480     13.13757363      0.01796500      2.15498094      0.69139404
Ag     10.76081180     12.53793642     14.34543989      0.01447020      0.62969842      0.21542053
Ag     13.40542079     13.38719036     16.24364685      0.01413722      0.11782825     -0.31317969
Ag     13.77276841     14.76417304     10.98812603      0.00826992      0.36861343      0.73210204
Ag     14.10452811     10.67765112     15.08563600      0.01470099      0.72966110     -0.50517390
Ag     17.84767771     15.01593038     14.76566107      0.00749050     -0.02277036      0.08294673
Ag     17.68306657     12.98615374     12.77612876      0.00782155      0.65632637     -0.66344930
Ag     15.64211365     12.79610270     11.00687721      0.00581075      0.24412964     -0.45143969
Ag     16.06819516     10.61470909     13.16650437      0.00596091      0.19801800      0.25646433
Ag     11.71523676     17.17976684     14.55505210      0.00746026     -0.47931178     -0.34881508
Ag     11.55151138     15.62912187     16.73917983      0.01405384     -0.66938734     -1.14824167
Ag     13.84888106     16.61505738     17.28848098      0.01424128      0.98399113      0.44843869
Ag     14.18163145     13.31194345     18.83684834      0.01642815     -0.20297658      0.24462879
Ag     17.97786881     16.80391527     12.72351672      0.00685759      0.27374046      0.09264313
Ag     17.63963473     14.70363284     10.78751239      0.00760976      0.65945431      0.25116226
Ag     16.06372414     16.85248320     10.38211887      0.00776085     -0.98953756      0.66456809
Ag     13.76100567     18.83129193     14.69589257      0.00834815      0.24774119     -0.24294270
Ag     15.68436460     18.19174927     12.92508910      0.00682087      0.11332018     -0.00385873
O      14.51125167     18.43360181     16.76051992      0.00545010      0.60538959     -0.22110698
Cl     18.27157964     13.92537232     17.00036902      0.00490768      0.27594716      0.05297590
Cl     18.41370895     17.18499917      9.70879152      0.01898090     -0.37415776     -0.40234508
O      13.86880257     16.95955299     10.38144460      0.00363081      0.83580318     -0.62270794
O      12.99055967     15.11633190     18.49911292      0.01159812     -0.18403384      0.20107412
Cl      9.68491581     15.25215009     15.19538710      0.05214013      0.26226501     -0.12590139
O      12.85729304     11.84104079     13.97624553      0.02266167     -3.94025076     -1.41076410
32
Lattice="29.7 0.0 0.0 0.0 29.7 0.0 0.0 0.0 29.7" Properties=species:S:1:pos:R:3:forces:R:3 energy=-80.38547464 stress="-0.0004729135478344886 5.92759242439696e-05 0.00019911394652651272 5.92759242439696e-05 1.4962389095423256e-05 2.2590986243406304e-05 0.00019911394652651272 2.2590986243406304e-05 -7.18558294418972e-05" free_energy=-80.47527418 pbc="T T T"
Ag     14.43210079     16.67500775     13.67373989      0.01365103     -0.35293927      0.08050517
Ag     15.92389298     13.71089381     13.50211375      0.01383423      0.75192464      0.27925484
Ag     16.41586093     11.86625427     15.44599791      0.01301128      0.63786092      0.21370966
Ag     15.92694702     18.51181697     16.05930823      0.01002710      3.77507528     -0.61035171
Ag     15.90516697     15.70235991     15.77095444      0.02225939      0.10657815     -0.52471611
Ag     12.36718384     15.44322234     12.16601004      0.01123487      0.40901161      0.52577827
Ag     12.76208107     18.33987941     12.32897031      0.01010295      0.18773277     -0.08113944
Ag     13.38407794     12.24643091     12.23543092      0.00903335      0.07841897     -0.94003794
Ag     10.92046834     13.46238507     15.01914833      0.01555426     -0.54208499     -0.46125778
Ag     13.54419160     13.95437687     14.50371778      0.01475620      1.51597039      0.23406351
Ag     14.59436434     14.14513812     10.91965057      0.01068925      0.01116910      1.45330665
Ag     13.92468931     11.23080504     15.64259166      0.00845733     -0.85163955      0.17871280
Ag     18.50912097     15.08241148     15.25030814      0.02233852      0.13525945      0.59730261
Ag     17.89087527     11.63623566     13.36921987      0.00824439      0.54539215      0.09971202
Ag     16.15703296     12.09780306     11.07677397      0.00608699      0.24573391     -0.44167698
Ag     15.27150080     10.63774790     13.32999455      0.00834474      0.13083572     -0.18215925
Ag     11.84805601     16.02115567     14.89990022      0.01126065      0.34032274      1.34092780
Ag     12.30224163     14.17165127     17.32538654      0.00983466      0.92357922      0.94615481
Ag     13.91495173     17.01686304     16.89202164      0.01204679     -1.11274106     -1.45719244
Ag     14.97748034     13.38506159     17.13855202      0.01166709     -0.41172893      0.57886220
Ag     17.11690372     16.56349926     13.39876877      0.01418895      0.55797936      0.02480174
Ag     17.43059255     14.67155773     11.44898371      0.01061568      0.04393316     -0.38579093
Ag     15.53113955     16.97376876     10.91227181      0.00755101     -0.74017368     -0.05072874
Ag     13.08702212     19.06449395     14.94977621      0.00700590      0.32438498     -0.46580856
Ag     16.01037765     18.93785555     12.92556833      0.00789310     -0.55848585      0.25350670
O      14.36766421     19.01000156     16.92089518      0.00500913     -3.28286226      1.73504789
Cl     17.97494826     13.66122079     16.95758494      0.05387781     -0.20780948     -0.99375161
Cl     17.93371266     16.86338753     10.31026824      0.00452396     -0.03931731      0.02001120
O      13.33814020     16.95655891     10.72242087      0.01220084      0.29408574     -0.62617297
O      13.90230442     15.22868365     18.16206367      0.00660085      0.19842458     -0.49502765
Cl     10.13939741     13.42953231     17.25339765      0.00302247     -1.08178521     -0.50671772
O      11.98957690     13.58428256     13.17224439      0.01011868     -2.03210526     -0.33912803
32
Lattice="29.7 0.0 0.0 0.0 29.7 0.0 0.0 0.0 29.7" Properties=species:S:1:pos:R:3:forces:R:3 energy=-80.74548663 stress="0.00042457800917125956 3.96117127013816e-05 -4.469894209556051e-06 3.96117127013816e-05 0.0001281517139461682 0.00013334811981797706 -4.469894209556051e-06 0.00013334811981797706 7.363716862944254e-05" free_energy=-80.87270794 pbc="T T T"
Ag     14.19475951     16.72921267     13.43795556      0.01246364      0.71124140     -0.87677194
Ag     16.24716975     14.28224738     13.44105706      0.01490493     -0.65341949      0.33501307
Ag     17.92098475     10.89617192     15.29828940      0.00927594     -0.02260004      0.30284675
Ag     16.70823513     18.75226011     15.10240625      0.01050423     -0.13130427     -0.03441276
Ag     16.22041036     16.08034304     15.78181059      0.01739983      0.16564007      0.07718198
Ag     12.40213716     15.10211502     11.96260971      0.01036754     -0.72531135     -0.78139449
Ag     12.31821435     18.35497894     12.27038212      0.01114342      0.34394789     -0.03095412
Ag     13.20839288     12.35997303     12.75243499      0.00758242     -0.36566702      0.43354020
Ag     10.90635537     13.49700461     14.62164287      0.01408813     -0.44810819      0.54736550
Ag     13.83868797     14.09540371     15.11251495      0.01320140      0.25382696      0.95140349
Ag     15.03146060     14.28728468     11.03616007      0.01208625     -0.83015521      0.55589371
Ag     12.89783415     11.70832803     15.53827703      0.01145225      0.06828902     -0.48256972
Ag     17.84637779     13.71936149     15.71909158      0.00925411     -0.27139293     -0.15983906