  50  50   0   0
  0.1348383E+04  0.4070000E-08  0.4070000E-08  0.4070000E-08  0.5000000E-15
  1.000000000000000E-004
  CAR 
 unknown system                          
      2.58795099    -12.49562973  301     -3.93231426      1.00000000
    -12.496  0.0000E+00  0.0000E+00
    -12.445  0.0000E+00  0.0000E+00
    -12.395  0.0000E+00  0.0000E+00
    -12.345  0.0000E+00  0.0000E+00
    -12.295  0.0000E+00  0.0000E+00
    -12.244  0.0000E+00  0.0000E+00
    -12.194  0.0000E+00  0.0000E+00
    -12.144  0.0000E+00  0.0000E+00
    -12.093  0.0000E+00  0.0000E+00
    -12.043  0.0000E+00  0.0000E+00
    -11.993  0.0000E+00  0.0000E+00
    -11.943  0.0000E+00  0.0000E+00
    -11.892  0.0000E+00  0.0000E+00
    -11.842  0.0000E+00  0.0000E+00
    -11.792  0.0000E+00  0.0000E+00
    -11.741  0.0000E+00  0.0000E+00
    -11.691  0.0000E+00  0.0000E+00
    -11.641  0.1104E-13  0.5551E-15
    -11.591  0.1833E-12  0.9770E-14
    -11.540  0.2789E-11  0.1500E-12
    -11.490  0.3761E-10  0.2041E-11
    -11.440  0.4473E-09  0.2453E-10
    -11.390  0.4694E-08  0.2605E-09
    -11.339  0.4345E-07  0.2445E-08
    -11.289  0.3548E-06  0.2028E-07
    -11.239  0.2556E-05  0.1488E-06
    -11.188  0.1625E-04  0.9656E-06
    -11.138  0.9110E-04  0.5546E-05
    -11.088  0.4507E-03  0.2821E-04
    -11.038  0.1967E-02  0.1271E-03
    -10.987  0.7578E-02  0.5081E-03
    -10.937  0.2575E-01  0.1803E-02
    -10.887  0.7722E-01  0.5686E-02
    -10.836  0.2043E+00  0.1596E-01
    -10.786  0.4770E+00  0.3994E-01
    -10.736  0.9827E+00  0.8935E-01
    -10.686  0.1787E+01  0.1792E+00
    -10.635  0.2866E+01  0.3233E+00
    -10.585  0.4057E+01  0.5272E+00
    -10.535  0.5067E+01  0.7820E+00
    -10.484  0.5586E+01  0.1063E+01
    -10.434  0.5435E+01  0.1336E+01
    -10.384  0.4673E+01  0.1571E+01
    -10.334  0.3565E+01  0.1750E+01
    -10.283  0.2464E+01  0.1874E+01
    -10.233  0.1678E+01  0.1959E+01
    -10.183  0.1437E+01  0.2031E+01
    -10.133  0.1945E+01  0.2129E+01
    -10.082  0.3479E+01  0.2304E+01
    -10.032  0.6441E+01  0.2627E+01
     -9.982  0.1133E+02  0.3197E+01
     -9.931  0.1855E+02  0.4130E+01
     -9.881  0.2817E+02  0.5546E+01
     -9.831  0.3957E+02  0.7535E+01
     -9.781  0.5140E+02  0.1012E+02
     -9.730  0.6201E+02  0.1324E+02
     -9.680  0.7020E+02  0.1677E+02
     -9.630  0.7590E+02  0.2058E+02
     -9.579  0.8022E+02  0.2462E+02
     -9.529  0.8467E+02  0.2887E+02
     -9.479  0.9021E+02  0.3341E+02
     -9.429  0.9675E+02  0.3827E+02
     -9.378  0.1035E+03  0.4348E+02
     -9.328  0.1098E+03  0.4900E+02
     -9.278  0.1151E+03  0.5479E+02
     -9.228  0.1196E+03  0.6080E+02
     -9.177  0.1233E+03  0.6700E+02
     -9.127  0.1259E+03  0.7333E+02
     -9.077  0.1268E+03  0.7971E+02
     -9.026  0.1256E+03  0.8602E+02
     -8.976  0.1224E+03  0.9217E+02
     -8.926  0.1182E+03  0.9811E+02
     -8.876  0.1144E+03  0.1039E+03
     -8.825  0.1128E+03  0.1095E+03
     -8.775  0.1150E+03  0.1153E+03
     -8.725  0.1218E+03  0.1214E+03
     -8.674  0.1331E+03  0.1281E+03
     -8.624  0.1479E+03  0.1356E+03
     -8.574  0.1644E+03  0.1438E+03
     -8.524  0.1802E+03  0.1529E+03
     -8.473  0.1936E+03  0.1626E+03
     -8.423  0.2031E+03  0.1729E+03
     -8.373  0.2085E+03  0.1833E+03
     -8.323  0.2104E+03  0.1939E+03
     -8.272  0.2099E+03  0.2045E+03
     -8.222  0.2082E+03  0.2149E+03
     -8.172  0.2058E+03  0.2253E+03
     -8.121  0.2025E+03  0.2355E+03
     -8.071  0.1973E+03  0.2454E+03
     -8.021  0.1902E+03  0.2550E+03
     -7.971  0.1820E+03  0.2641E+03
     -7.920  0.1742E+03  0.2729E+03
     -7.870  0.1690E+03  0.2814E+03
     -7.820  0.1677E+03  0.2898E+03
     -7.769  0.1704E+03  0.2984E+03
     -7.719  0.1760E+03  0.3072E+03
     -7.669  0.1833E+03  0.3164E+03
     -7.619  0.1909E+03  0.3260E+03
     -7.568  0.1981E+03  0.3360E+03
     -7.518  0.2044E+03  0.3463E+03
     -7.468  0.2097E+03  0.3568E+03
     -7.417  0.2142E+03  0.3676E+03
     -7.367  0.2189E+03  0.3786E+03
     -7.317  0.2245E+03  0.3899E+03
     -7.267  0.2315E+03  0.4015E+03
     -7.216  0.2392E+03  0.4135E+03
     -7.166  0.2458E+03  0.4259E+03
     -7.116  0.2489E+03  0.4384E+03
     -7.066  0.2464E+03  0.4508E+03
     -7.015  0.2371E+03  0.4627E+03
     -6.965  0.2208E+03  0.4738E+03
     -6.915  0.1981E+03  0.4838E+03
     -6.864  0.1702E+03  0.4923E+03
     -6.814  0.1390E+03  0.4993E+03
     -6.764  0.1068E+03  0.5047E+03
     -6.714  0.7675E+02  0.5085E+03
     -6.663  0.5155E+02  0.5111E+03
     -6.613  0.3313E+02  0.5128E+03
     -6.563  0.2194E+02  0.5139E+03
     -6.512  0.1690E+02  0.5148E+03
     -6.462  0.1597E+02  0.5156E+03
     -6.412  0.1683E+02  0.5164E+03
     -6.362  0.1754E+02  0.5173E+03
     -6.311  0.1709E+02  0.5181E+03
     -6.261  0.1553E+02  0.5189E+03
     -6.211  0.1359E+02  0.5196E+03
     -6.161  0.1221E+02  0.5202E+03
     -6.110  0.1192E+02  0.5208E+03
     -6.060  0.1268E+02  0.5215E+03
     -6.010  0.1394E+02  0.5222E+03
     -5.959  0.1494E+02  0.5229E+03
     -5.909  0.1503E+02  0.5237E+03
     -5.859  0.1391E+02  0.5244E+03
     -5.809  0.1182E+02  0.5250E+03
     -5.758  0.9383E+01  0.5254E+03
     -5.708  0.7398E+01  0.5258E+03
     -5.658  0.6531E+01  0.5261E+03
     -5.607  0.7093E+01  0.5265E+03
     -5.557  0.8945E+01  0.5269E+03
     -5.507  0.1154E+02  0.5275E+03
     -5.457  0.1406E+02  0.5282E+03
     -5.406  0.1571E+02  0.5290E+03
     -5.356  0.1596E+02  0.5298E+03
     -5.306  0.1487E+02  0.5306E+03
     -5.256  0.1299E+02  0.5312E+03
     -5.205  0.1116E+02  0.5318E+03
     -5.155  0.1011E+02  0.5323E+03
     -5.105  0.1015E+02  0.5328E+03
     -5.054  0.1116E+02  0.5334E+03
     -5.004  0.1273E+02  0.5340E+03
     -4.954  0.1443E+02  0.5347E+03
     -4.904  0.1587E+02  0.5355E+03
     -4.853  0.1674E+02  0.5364E+03
     -4.803  0.1676E+02  0.5372E+03
     -4.753  0.1580E+02  0.5380E+03
     -4.702  0.1399E+02  0.5387E+03
     -4.652  0.1176E+02  0.5393E+03
     -4.602  0.9713E+01  0.5398E+03
     -4.552  0.8312E+01  0.5402E+03
     -4.501  0.7714E+01  0.5406E+03
     -4.451  0.7802E+01  0.5410E+03
     -4.401  0.8407E+01  0.5414E+03
     -4.350  0.9517E+01  0.5419E+03
     -4.300  0.1128E+02  0.5425E+03
     -4.250  0.1380E+02  0.5431E+03
     -4.200  0.1695E+02  0.5440E+03
     -4.149  0.2022E+02  0.5450E+03
     -4.099  0.2289E+02  0.5462E+03
     -4.049  0.2425E+02  0.5474E+03
     -3.999  0.2386E+02  0.5486E+03
     -3.948  0.2181E+02  0.5497E+03
     -3.898  0.1876E+02  0.5506E+03
     -3.848  0.1578E+02  0.5514E+03
     -3.797  0.1391E+02  0.5521E+03
     -3.747  0.1365E+02  0.5528E+03
     -3.697  0.1481E+02  0.5536E+03
     -3.647  0.1662E+02  0.5544E+03
     -3.596  0.1821E+02  0.5553E+03
     -3.546  0.1910E+02  0.5563E+03
     -3.496  0.1934E+02  0.5572E+03
     -3.445  0.1936E+02  0.5582E+03
     -3.395  0.1961E+02  0.5592E+03
     -3.345  0.2020E+02  0.5602E+03
     -3.295  0.2096E+02  0.5613E+03
     -3.244  0.2151E+02  0.5623E+03
     -3.194  0.2162E+02  0.5634E+03
     -3.144  0.2126E+02  0.5645E+03
     -3.094  0.2062E+02  0.5655E+03
     -3.043  0.1999E+02  0.5665E+03
     -2.993  0.1961E+02  0.5675E+03
     -2.943  0.1969E+02  0.5685E+03
     -2.892  0.2043E+02  0.5695E+03
     -2.842  0.2203E+02  0.5707E+03
     -2.792  0.2449E+02  0.5719E+03
     -2.742  0.2741E+02  0.5733E+03
     -2.691  0.2998E+02  0.5748E+03
     -2.641  0.3128E+02  0.5763E+03
     -2.591  0.3070E+02  0.5779E+03
     -2.540  0.2830E+02  0.5793E+03
     -2.490  0.2489E+02  0.5806E+03
     -2.440  0.2165E+02  0.5816E+03
     -2.390  0.1961E+02  0.5826E+03
     -2.339  0.1924E+02  0.5836E+03
     -2.289  0.2028E+02  0.5846E+03
     -2.239  0.2195E+02  0.5857E+03
     -2.189  0.2329E+02  0.5869E+03
     -2.138  0.2356E+02  0.5881E+03
     -2.088  0.2252E+02  0.5892E+03
     -2.038  0.2064E+02  0.5903E+03
     -1.987  0.1893E+02  0.5912E+03
     -1.937  0.1863E+02  0.5921E+03
     -1.887  0.2063E+02  0.5932E+03
     -1.837  0.2494E+02  0.5944E+03
     -1.786  0.3047E+02  0.5960E+03
     -1.736  0.3533E+02  0.5977E+03
     -1.686  0.3759E+02  0.5996E+03
     -1.635  0.3621E+02  0.6015E+03
     -1.585  0.3150E+02  0.6030E+03
     -1.535  0.2505E+02  0.6043E+03
     -1.485  0.1895E+02  0.6052E+03
     -1.434  0.1498E+02  0.6060E+03
     -1.384  0.1407E+02  0.6067E+03
     -1.334  0.1618E+02  0.6075E+03
     -1.284  0.2056E+02  0.6086E+03
     -1.233  0.2608E+02  0.6099E+03
     -1.183  0.3156E+02  0.6115E+03
     -1.133  0.3599E+02  0.6133E+03
     -1.082  0.3865E+02  0.6152E+03
     -1.032  0.3912E+02  0.6172E+03
     -0.982  0.3736E+02  0.6191E+03
     -0.932  0.3369E+02  0.6207E+03
     -0.881  0.2879E+02  0.6222E+03
     -0.831  0.2352E+02  0.6234E+03
     -0.781  0.1875E+02  0.6243E+03
     -0.730  0.1521E+02  0.6251E+03
     -0.680  0.1341E+02  0.6258E+03
     -0.630  0.1369E+02  0.6264E+03
     -0.580  0.1605E+02  0.6273E+03
     -0.529  0.2010E+02  0.6283E+03
     -0.479  0.2491E+02  0.6295E+03
     -0.429  0.2930E+02  0.6310E+03
     -0.378  0.3216E+02  0.6326E+03
     -0.328  0.3295E+02  0.6343E+03
     -0.278  0.3196E+02  0.6359E+03
     -0.228  0.3019E+02  0.6374E+03
     -0.177  0.2912E+02  0.6389E+03
     -0.127  0.3032E+02  0.6404E+03
     -0.077  0.3513E+02  0.6421E+03
     -0.027  0.4439E+02  0.6444E+03
      0.024  0.5837E+02  0.6473E+03
      0.074  0.7680E+02  0.6512E+03
      0.124  0.9900E+02  0.6561E+03
      0.175  0.1239E+03  0.6624E+03
      0.225  0.1498E+03  0.6699E+03
      0.275  0.1750E+03  0.6787E+03
      0.325  0.1975E+03  0.6886E+03
      0.376  0.2154E+03  0.6995E+03
      0.426  0.2269E+03  0.7109E+03
      0.476  0.2294E+03  0.7224E+03
      0.527  0.2204E+03  0.7335E+03
      0.577  0.1985E+03  0.7435E+03
      0.627  0.1654E+03  0.7518E+03
      0.677  0.1260E+03  0.7581E+03
      0.728  0.8699E+02  0.7625E+03
      0.778  0.5402E+02  0.7652E+03
      0.828  0.3003E+02  0.7667E+03
      0.878  0.1490E+02  0.7675E+03
      0.929  0.6577E+01  0.7678E+03
      0.979  0.2580E+01  0.7679E+03
      1.029  0.8983E+00  0.7680E+03
      1.080  0.2773E+00  0.7680E+03
      1.130  0.7585E-01  0.7680E+03
      1.180  0.1837E-01  0.7680E+03
      1.230  0.3939E-02  0.7680E+03
      1.281  0.7472E-03  0.7680E+03
      1.331  0.1254E-03  0.7680E+03
      1.381  0.1861E-04  0.7680E+03
      1.432  0.2442E-05  0.7680E+03
      1.482  0.2833E-06  0.7680E+03
      1.532  0.2904E-07  0.7680E+03
      1.582  0.2631E-08  0.7680E+03
      1.633  0.2107E-09  0.7680E+03
      1.683  0.1490E-10  0.7680E+03
      1.733  0.9451E-12  0.7680E+03
      1.783  0.3975E-13  0.7680E+03
      1.834  0.0000E+00  0.7680E+03
      1.884  0.0000E+00  0.7680E+03
      1.934  0.0000E+00  0.7680E+03
      1.985  0.0000E+00  0.7680E+03
      2.035  0.0000E+00  0.7680E+03
      2.085  0.0000E+00  0.7680E+03
      2.135  0.0000E+00  0.7680E+03
      2.186  0.0000E+00  0.7680E+03
      2.236  0.0000E+00  0.7680E+03
      2.286  0.0000E+00  0.7680E+03
      2.337  0.0000E+00  0.7680E+03
      2.387  0.0000E+00  0.7680E+03
      2.437  0.0000E+00  0.7680E+03
      2.487  0.0000E+00  0.7680E+03
      2.538  0.0000E+00  0.7680E+03
      2.588  0.0000E+00  0.7680E+03
