 vasp.6.3.0 20Jan22 (build Jul 12 2024 16:06:18) gamma-only                     
  
 executed on             LinuxIFC date 2024.10.30  12:55:32
 running on   96 total cores
 distrk:  each k-point on   96 cores,    1 groups
 distr:  one band on NCORE=   1 cores,   96 groups


--------------------------------------------------------------------------------------------------------


 INCAR:
   ENCUT = 400.000000
   SIGMA = 0.200000
   EDIFF = 1.00e-04
   EDIFFG = -8.00e-02
   GGA = PE
   PREC = Accurate
   IBRION = -1
   ISMEAR = 0
   NSW = 0
   LCHARG = .FALSE.
   LSCALAPACK = .FALSE.
   LWAVE = .FALSE.
   LREAL = Auto

 POTCAR:    PAW_PBE Ag 02Apr2005                  
 -----------------------------------------------------------------------------
|                                                                             |
|           W    W    AA    RRRRR   N    N  II  N    N   GGGG   !!!           |
|           W    W   A  A   R    R  NN   N  II  NN   N  G    G  !!!           |
|           W    W  A    A  R    R  N N  N  II  N N  N  G       !!!           |
|           W WW W  AAAAAA  RRRRR   N  N N  II  N  N N  G  GGG   !            |
|           WW  WW  A    A  R   R   N   NN  II  N   NN  G    G                |
|           W    W  A    A  R    R  N    N  II  N    N   GGGG   !!!           |
|                                                                             |
|     For optimal performance we recommend to set                             |
|       NCORE = 2 up to number-of-cores-per-socket                            |
|     NCORE specifies how many cores store one orbital (NPAR=cpu/NCORE).      |
|     This setting can greatly improve the performance of VASP for DFT.       |
|     The default, NCORE=1 might be grossly inefficient on modern             |
|     multi-core architectures or massively parallel machines. Do your        |
|     own testing! More info at https://www.vasp.at/wiki/index.php/NCORE      |
|     Unfortunately you need to use the default for GW and RPA                |
|     calculations (for HF NCORE is supported but not extensively tested      |
|     yet).                                                                   |
|                                                                             |
 -----------------------------------------------------------------------------

 POTCAR:    PAW_PBE Ag 02Apr2005                  
   SHA256 =  6550cfa3543261e132c169e1b98a529204624d72be14e2da2e0242bcb74a174d Ag/POTCAR             
   COPYR  = (c) Copyright 02Apr2005 Georg Kresse                                                    
   COPYR  = This file is part of the software VASP. Any use, copying, and all other rights are regul
   COPYR  = If you do not have a valid VASP license, you may not use, copy or distribute this file. 
   VRHFIN =Ag : s1 d10                                                                              
   LEXCH  = PE                                                                                      
   EATOM  =  1037.2675 eV,   76.2370 Ry                                                             
                                                                                                    
   TITEL  = PAW_PBE Ag 02Apr2005                                                                    
   LULTRA =        F    use ultrasoft PP ?                                                          
   IUNSCR =        1    unscreen: 0-lin 1-nonlin 2-no                                               
   RPACOR =    2.000    partial core radius                                                         
   POMASS =  107.868; ZVAL   =   11.000    mass and valenz                                          
   RCORE  =    2.500    outmost cutoff radius                                                       
   RWIGS  =    2.840; RWIGS  =    1.503    wigner-seitz radius (au A)                               
   ENMAX  =  249.844; ENMIN  =  187.383 eV                                                          
   ICORE  =        3    local potential                                                             
   LCOR   =        T    correct aug charges                                                         
   LPAW   =        T    paw PP                                                                      
   EAUG   =  412.496                                                                                
   DEXC   =    0.000                                                                                
   RMAX   =    2.560    core radius for proj-oper                                                   
   RAUG   =    1.300    factor for augmentation sphere                                              
   RDEP   =    2.576    radius for radial grids                                                     
   RDEPT  =    2.072    core radius for aug-charge                                                  
                                                                                                    
   Atomic configuration                                                                             
   12 entries                                                                                       
     n  l   j            E        occ.                                                              
     1  0  0.50    -25324.9161   2.0000                                                             
     2  0  0.50     -3728.5341   2.0000                                                             
     2  1  1.50     -3344.0404   6.0000                                                             
     3  0  0.50      -683.5581   2.0000                                                             
     3  1  1.50      -557.3225   6.0000                                                             
     3  2  2.50      -358.3853  10.0000                                                             
     4  0  0.50       -95.0341   2.0000                                                             
     4  1  1.50       -58.5511   6.0000                                                             
     4  2  2.50        -7.4440  10.0000                                                             
     5  0  0.50        -4.4045   1.0000                                                             
     5  1  0.50        -1.3606   0.0000                                                             
     4  3  2.50        -1.3606   0.0000                                                             
   Description                                                                                      
     l       E           TYP  RCUT    TYP  RCUT                                                     
     2     -7.4439781     23  2.400                                                                 
     2     -8.8045607     23  2.400                                                                 
     0     -4.4044681     23  2.400                                                                 
     0      1.9520038     23  2.400                                                                 
     1     -1.3605826     23  2.500                                                                 
     1     27.2116520     23  2.500                                                                 
     3     -4.0817478     23  2.400                                                                 
  local pseudopotential read in
  partial core-charges read in
  partial kinetic energy density read in
  atomic valenz-charges read in
  non local Contribution for L=           2  read in
    real space projection operators read in
  non local Contribution for L=           2  read in
    real space projection operators read in
  non local Contribution for L=           0  read in
    real space projection operators read in
  non local Contribution for L=           0  read in
    real space projection operators read in
  non local Contribution for L=           1  read in
    real space projection operators read in
  non local Contribution for L=           1  read in
    real space projection operators read in
    PAW grid and wavefunctions read in
 
   number of l-projection  operators is LMAX  =           6
   number of lm-projection operators is LMMAX =          18
 
 Optimization of the real space projectors (new method)

 maximal supplied QI-value         = 15.12
 optimisation between [QCUT,QGAM] = [ 10.13, 20.41] = [ 28.73,116.64] Ry 
 Optimized for a Real-space Cutoff    1.55 Angstroem

   l    n(q)    QCUT    max X(q) W(low)/X(q) W(high)/X(q)  e(spline) 
   2      9    10.129    53.897    0.12E-03    0.59E-04    0.12E-06
   2      9    10.129    52.416    0.12E-03    0.58E-04    0.12E-06
   0      9    10.129   122.045    0.47E-04    0.63E-05    0.83E-07
   0      9    10.129    73.629    0.43E-04    0.60E-05    0.80E-07
   1      9    10.129    15.255    0.12E-03    0.81E-05    0.12E-06
   1      9    10.129     9.562    0.10E-03    0.55E-05    0.10E-06
  PAW_PBE Ag 02Apr2005                  :
 energy of atom  1       EATOM=-1037.2675
 kinetic energy error for atom=    0.0091 (will be added to EATOM!!)
 
 
 POSCAR: Ag
  positions in cartesian coordinates
  No initial velocities read in
 exchange correlation table for  LEXCH =        8
   RHO(1)=    0.500       N(1)  =     2000
   RHO(2)=  100.500       N(2)  =     4000

 VTST: version 4.2, (08/11/21)

 CHAIN: initializing optimizer
 
 OPT: Using VASP Dynamics algorithm
 CHAIN: Read ICHAIN            0
 
 POSCAR: Ag
  positions in cartesian coordinates
  No initial velocities read in
 


--------------------------------------------------------------------------------------------------------


 ion  position               nearest neighbor table
   1  0.475  0.525  0.525-   2 2.90   3 2.90   8 2.90   5 2.90   6 2.90   7 2.90   4 2.90   9 2.90
                            10 2.90  17 2.90  18 2.90  19 2.90
   2  0.525  0.525  0.475-   1 2.90   3 2.90   8 2.90   7 2.90   4 2.90  11 2.90  13 2.90  14 2.90
                            15 2.90  20 2.90  21 2.90  36 2.90
   3  0.525  0.475  0.525-   1 2.90   2 2.90   8 2.90   5 2.90  10 2.90  12 2.90  13 2.90  14 2.90
                            16 2.90  22 2.90  23 2.90  24 2.90
   4  0.525  0.576  0.525-   7 2.90   2 2.90   1 2.90  19 2.90  20 2.90  25 2.90  26 2.90   5 2.90
                            13 2.90  30 2.90  31 2.90  32 2.90
   5  0.525  0.525  0.576-  10 2.90   3 2.90   1 2.90  19 2.90  23 2.90  28 2.90  29 2.90   4 2.90
                            13 2.90  31 2.90  33 2.90  34 2.90
   6  0.424  0.525  0.475-   9 2.90   8 2.90   1 2.90  17 2.90  39 2.90  40 2.90  41 2.90   7 2.90
                            11 2.90
   7  0.475  0.576  0.475-   4 2.90   2 2.90   1 2.90  17 2.90  21 2.90  25 2.90  26 2.90   6 2.90
                            11 2.90
   8  0.475  0.475  0.475-   1 2.90   2 2.90   3 2.90   6 2.90   9 2.90  11 2.90  12 2.90  15 2.90
                            16 2.90  41 2.90  42 2.90  43 2.90
   9  0.424  0.475  0.525-   6 2.90   1 2.90   8 2.90  18 2.90  39 2.90  40 2.90  42 2.90  10 2.90
                            12 2.90
  10  0.475  0.475  0.576-   5 2.90   3 2.90   1 2.90  18 2.90  24 2.90  28 2.90  29 2.90   9 2.90
                            12 2.90
  11  0.475  0.525  0.424-  15 2.90   8 2.90   2 2.90  21 2.90  41 2.90  44 2.90  45 2.90   6 2.90
                             7 2.90
  12  0.475  0.424  0.525-  16 2.90   8 2.90   3 2.90  24 2.90  42 2.90  46 2.90  47 2.90  10 2.90
                             9 2.90
  13  0.576  0.525  0.525-  14 2.90   3 2.90   2 2.90  20 2.90  23 2.90  27 2.90  38 2.90   5 2.90
                            31 2.90  35 2.90  37 2.90   4 2.90
  14  0.576  0.475  0.475-  13 2.90   3 2.90   2 2.90  22 2.90  27 2.90  36 2.90  38 2.90  15 2.90
                            16 2.90
  15  0.525  0.475  0.424-  11 2.90   8 2.90   2 2.90  36 2.90  43 2.90  44 2.90  45 2.90  14 2.90
                            16 2.90
  16  0.525  0.424  0.475-  12 2.90   8 2.90   3 2.90  22 2.90  43 2.90  46 2.90  47 2.90  14 2.90
                            15 2.90
  17  0.424  0.576  0.525-   6 2.90   7 2.90   1 2.90  18 2.90  19 2.90  25 2.90  39 2.90
  18  0.424  0.525  0.576-   9 2.90  10 2.90   1 2.90  17 2.90  19 2.90  28 2.90  39 2.90
  19  0.475  0.576  0.576-   4 2.90   5 2.90  32 2.90  34 2.90  18 2.90  25 2.90  28 2.90   1 2.90
                            17 2.90
  20  0.576  0.576  0.475-   4 2.90  13 2.90  30 2.90  37 2.90  26 2.90   2 2.90  36 2.90  21 2.90
                            38 2.90
  21  0.525  0.576  0.424-   7 2.90  11 2.90   2 2.90  20 2.90  26 2.90  36 2.90  44 2.90
  22  0.576  0.424  0.525-  14 2.90  16 2.90   3 2.90  23 2.90  24 2.90  27 2.90  46 2.90
  23  0.576  0.475  0.576-   5 2.90  13 2.90  33 2.90  35 2.90  24 2.90  27 2.90  29 2.90   3 2.90
                            22 2.90
  24  0.525  0.424  0.576-  10 2.90  12 2.90   3 2.90  22 2.90  23 2.90  29 2.90  46 2.90
  25  0.475  0.626  0.525-  26 2.90   7 2.90   4 2.90  32 2.90  17 2.90  19 2.90
  26  0.525  0.626  0.475-  25 2.90   7 2.90   4 2.90  30 2.90  20 2.90  21 2.90
  27  0.626  0.475  0.525-  38 2.90  14 2.90  35 2.90  13 2.90  22 2.90  23 2.90
  28  0.475  0.525  0.626-  29 2.90  10 2.90   5 2.90  34 2.90  18 2.90  19 2.90
  29  0.525  0.475  0.626-  28 2.90  10 2.90   5 2.90  33 2.90  23 2.90  24 2.90
  30  0.576  0.626  0.525-  20 2.90  26 2.90   4 2.90  31 2.90  32 2.90  37 2.90
  31  0.576  0.576  0.576-   4 2.90   5 2.90  13 2.90  30 2.90  32 2.90  33 2.90  34 2.90  35 2.90
                            37 2.90
  32  0.525  0.626  0.576-  19 2.90  25 2.90   4 2.90  30 2.90  31 2.90  34 2.90
  33  0.576  0.525  0.626-  23 2.90  29 2.90   5 2.90  31 2.90  34 2.90  35 2.90
  34  0.525  0.576  0.626-  19 2.90  28 2.90   5 2.90  31 2.90  32 2.90  33 2.90
  35  0.626  0.525  0.576-  23 2.90  27 2.90  13 2.90  31 2.90  33 2.90  37 2.90
  36  0.576  0.525  0.424-  14 2.90  15 2.90   2 2.90  20 2.90  21 2.90  38 2.90  44 2.90
  37  0.626  0.576  0.525-  20 2.90  38 2.90  30 2.90  31 2.90  35 2.90  13 2.90
  38  0.626  0.525  0.475-  27 2.90  14 2.90  13 2.90  37 2.90  36 2.90  20 2.90
  39  0.374  0.525  0.525-  40 2.90   9 2.90   6 2.90  18 2.90  17 2.90
  40  0.374  0.475  0.475-  39 2.90   9 2.90   6 2.90  41 2.90  42 2.90  48 2.90
  41  0.424  0.475  0.424-   6 2.90  11 2.90   8 2.90  40 2.90  42 2.90  43 2.90  45 2.90  48 2.90
                            49 2.90
  42  0.424  0.424  0.475-   9 2.90  12 2.90   8 2.90  40 2.90  41 2.90  43 2.90  47 2.90  48 2.90
                            50 2.90
  43  0.475  0.424  0.424-  15 2.90  16 2.90   8 2.90  41 2.90  42 2.90  45 2.90  47 2.90  49 2.90
                            50 2.90
  44  0.525  0.525  0.374-  45 2.90  15 2.90  11 2.90  36 2.90  21 2.90
  45  0.475  0.475  0.374-  44 2.90  15 2.90  11 2.90  43 2.90  41 2.90  49 2.90
  46  0.525  0.374  0.525-  47 2.90  16 2.90  12 2.90  24 2.90  22 2.90
  47  0.475  0.374  0.475-  46 2.90  16 2.90  12 2.90  43 2.90  42 2.90  50 2.90
  48  0.374  0.424  0.424-  40 2.90  41 2.90  42 2.90  49 2.90  50 2.90
  49  0.424  0.424  0.374-  41 2.90  43 2.90  45 2.90  48 2.90  50 2.90
  50  0.424  0.374  0.424-  42 2.90  43 2.90  47 2.90  48 2.90  49 2.90
 
  LATTYP: Found a simple cubic cell.
 ALAT       =    40.7000000000
  
  Lattice vectors:
  
 A1 = (  40.7000000000,   0.0000000000,   0.0000000000)
 A2 = (   0.0000000000,  40.7000000000,   0.0000000000)
 A3 = (   0.0000000000,   0.0000000000,  40.7000000000)


Analysis of symmetry for initial positions (statically):
=====================================================================
 Subroutine PRICEL returns:
 Original cell was already a primitive cell.
 

 Routine SETGRP: Setting up the symmetry group for a 
 simple cubic supercell.


 Subroutine GETGRP returns: Found  6 space group operations
 (whereof  6 operations were pure point group operations)
 out of a pool of 48 trial point group operations.


The static configuration has the point symmetry C_3v.


Analysis of symmetry for dynamics (positions and initial velocities):
=====================================================================
 Subroutine PRICEL returns:
 Original cell was already a primitive cell.
 

 Routine SETGRP: Setting up the symmetry group for a 
 simple cubic supercell.


 Subroutine GETGRP returns: Found  6 space group operations
 (whereof  6 operations were pure point group operations)
 out of a pool of 48 trial point group operations.


The dynamic configuration has the point symmetry C_3v.


 Subroutine INISYM returns: Found  6 space group operations
 (whereof  6 operations are pure point group operations),
 and found     1 'primitive' translations


----------------------------------------------------------------------------------------

                                     Primitive cell                                     

  volume of cell :   67419.1430

  direct lattice vectors                    reciprocal lattice vectors
    40.700000000  0.000000000  0.000000000     0.024570025  0.000000000  0.000000000
     0.000000000 40.700000000  0.000000000     0.000000000  0.024570025  0.000000000
     0.000000000  0.000000000 40.700000000     0.000000000  0.000000000  0.024570025

  length of vectors
    40.700000000 40.700000000 40.700000000     0.024570025  0.024570025  0.024570025

  position of ions in fractional coordinates (direct lattice)
     0.474815725  0.525184275  0.525184275
     0.525184275  0.525184275  0.474815725
     0.525184275  0.474815725  0.525184275
     0.525184275  0.575552826  0.525184275
     0.525184275  0.525184275  0.575552826
     0.424447174  0.525184275  0.474815725
     0.474815725  0.575552826  0.474815725
     0.474815725  0.474815725  0.474815725
     0.424447174  0.474815725  0.525184275
     0.474815725  0.474815725  0.575552826
     0.474815725  0.525184275  0.424447174
     0.474815725  0.424447174  0.525184275
     0.575552826  0.525184275  0.525184275
     0.575552826  0.474815725  0.474815725
     0.525184275  0.474815725  0.424447174
     0.525184275  0.424447174  0.474815725
     0.424447174  0.575552826  0.525184275
     0.424447174  0.525184275  0.575552826
     0.474815725  0.575552826  0.575552826
     0.575552826  0.575552826  0.474815725
     0.525184275  0.575552826  0.424447174
     0.575552826  0.424447174  0.525184275
     0.575552826  0.474815725  0.575552826
     0.525184275  0.424447174  0.575552826
     0.474815725  0.625921376  0.525184275
     0.525184275  0.625921376  0.474815725
     0.625921376  0.474815725  0.525184275
     0.474815725  0.525184275  0.625921376
     0.525184275  0.474815725  0.625921376
     0.575552826  0.625921376  0.525184275
     0.575552826  0.575552826  0.575552826
     0.525184275  0.625921376  0.575552826
     0.575552826  0.525184275  0.625921376
     0.525184275  0.575552826  0.625921376
     0.625921376  0.525184275  0.575552826
     0.575552826  0.525184275  0.424447174
     0.625921376  0.575552826  0.525184275
     0.625921376  0.525184275  0.474815725
     0.374078624  0.525184275  0.525184275
     0.374078624  0.474815725  0.474815725
     0.424447174  0.474815725  0.424447174
     0.424447174  0.424447174  0.474815725
     0.474815725  0.424447174  0.424447174
     0.525184275  0.525184275  0.374078624
     0.474815725  0.474815725  0.374078624
     0.525184275  0.374078624  0.525184275
     0.474815725  0.374078624  0.474815725
     0.374078624  0.424447174  0.424447174
     0.424447174  0.424447174  0.374078624
     0.424447174  0.374078624  0.424447174

  ion indices of the primitive-cell ions
   primitive index   ion index
                 1           1
                 2           2
                 3           3
                 4           4
                 5           5
                 6           6
                 7           7
                 8           8
                 9           9
                10          10
                11          11
                12          12
                13          13
                14          14
                15          15
                16          16
                17          17
                18          18
                19          19
                20          20
                21          21
                22          22
                23          23
                24          24
                25          25
                26          26
                27          27
                28          28
                29          29
                30          30
                31          31
                32          32
                33          33
                34          34
                35          35
                36          36
                37          37
                38          38
                39          39
                40          40
                41          41
                42          42
                43          43
                44          44
                45          45
                46          46
                47          47
                48          48
                49          49
                50          50

----------------------------------------------------------------------------------------

 
 
 KPOINTS: KPOINTS created by Atomic Simulation Env

Automatic generation of k-mesh.
 Grid dimensions read from file:
 generate k-points for:    1    1    1

 Generating k-lattice:

  Cartesian coordinates                     Fractional coordinates (reciprocal lattice)
     0.024570025  0.000000000  0.000000000     1.000000000  0.000000000  0.000000000
     0.000000000  0.024570025  0.000000000     0.000000000  1.000000000  0.000000000
     0.000000000  0.000000000  0.024570025     0.000000000  0.000000000  1.000000000

  Length of vectors
     0.024570025  0.024570025  0.024570025

  Shift w.r.t. Gamma in fractional coordinates (k-lattice)
     0.000000000  0.000000000  0.000000000

 
 Subroutine IBZKPT returns following result:
 ===========================================
 
 Found      1 irreducible k-points:
 
 Following reciprocal coordinates:
            Coordinates               Weight
  0.000000  0.000000  0.000000      1.000000
 
 Following cartesian coordinates:
            Coordinates               Weight
  0.000000  0.000000  0.000000      1.000000
 


--------------------------------------------------------------------------------------------------------




 Dimension of arrays:
   k-points           NKPTS =      1   k-points in BZ     NKDIM =      1   number of bands    NBANDS=    384
   number of dos      NEDOS =    301   number of ions     NIONS =     50
   non local maximal  LDIM  =      6   non local SUM 2l+1 LMDIM =     18
   total plane-waves  NPLWV = ******
   max r-space proj   IRMAX =   4637   max aug-charges    IRDMAX=  14553
   dimension x,y,z NGX =   270 NGY =  270 NGZ =  270
   dimension x,y,z NGXF=   540 NGYF=  540 NGZF=  540
   support grid    NGXF=   540 NGYF=  540 NGZF=  540
   ions per type =              50
   NGX,Y,Z   is equivalent  to a cutoff of  11.03, 11.03, 11.03 a.u.
   NGXF,Y,Z  is equivalent  to a cutoff of  22.06, 22.06, 22.06 a.u.

 SYSTEM =  unknown system                          
 POSCAR =  Ag                                      

 Startparameter for this run:
   NWRITE =      2    write-flag & timer
   PREC   = accura    normal or accurate (medium, high low for compatibility)
   ISTART =      0    job   : 0-new  1-cont  2-samecut
   ICHARG =      2    charge: 1-file 2-atom 10-const
   ISPIN  =      1    spin polarized calculation?
   LNONCOLLINEAR =      F non collinear calculations
   LSORBIT =      F    spin-orbit coupling
   INIWAV =      1    electr: 0-lowe 1-rand  2-diag
   LASPH  =      F    aspherical Exc in radial PAW
 Electronic Relaxation 1
   ENCUT  =  400.0 eV  29.40 Ry    5.42 a.u.  66.37 66.37 66.37*2*pi/ulx,y,z
   ENINI  =  400.0     initial cutoff
   ENAUG  =  412.5 eV  augmentation charge cutoff
   NELM   =     60;   NELMIN=  2; NELMDL= -5     # of ELM steps 
   EDIFF  = 0.1E-03   stopping-criterion for ELM
   LREAL  =      T    real-space projection
   NLSPLINE    = F    spline interpolate recip. space projectors
   LCOMPAT=      F    compatible to vasp.4.4
   GGA_COMPAT  = T    GGA compatible to vasp.4.4-vasp.4.6
   LMAXPAW     = -100 max onsite density
   LMAXMIX     =    2 max onsite mixed and CHGCAR
   VOSKOWN=      0    Vosko Wilk Nusair interpolation
   ROPT   =   -0.00025
 Ionic relaxation
   EDIFFG = -.8E-01   stopping-criterion for IOM
   NSW    =      0    number of steps for IOM
   NBLOCK =      1;   KBLOCK =      1    inner block; outer block 
   IBRION =     -1    ionic relax: 0-MD 1-quasi-New 2-CG
   NFREE  =      0    steps in history (QN), initial steepest desc. (CG)
   ISIF   =      2    stress and relaxation
   IWAVPR =     10    prediction:  0-non 1-charg 2-wave 3-comb
   ISYM   =      2    0-nonsym 1-usesym 2-fastsym
   LCORR  =      T    Harris-Foulkes like correction to forces

   POTIM  = 0.5000    time-step for ionic-motion
   TEIN   =    0.0    initial temperature
   TEBEG  =    0.0;   TEEND  =   0.0 temperature during run
   SMASS  =  -3.00    Nose mass-parameter (am)
   estimated Nose-frequenzy (Omega)   =  0.10E-29 period in steps = 0.13E+47 mass=  -0.379E-25a.u.
   SCALEE = 1.0000    scale energy and forces
   NPACO  =    256;   APACO  = 10.0  distance and # of slots for P.C.
   PSTRESS=    0.0 pullay stress

  Mass of Ions in am
   POMASS = 107.87
  Ionic Valenz
   ZVAL   =  11.00
  Atomic Wigner-Seitz radii
   RWIGS  =  -1.00
  virtual crystal weights 
   VCA    =   1.00
   NELECT =     550.0000    total number of electrons
   NUPDOWN=      -1.0000    fix difference up-down

 DOS related values:
   EMIN   =  10.00;   EMAX   =-10.00  energy-range for DOS
   EFERMI =   0.00
   ISMEAR =     0;   SIGMA  =   0.20  broadening in eV -4-tet -1-fermi 0-gaus

 Electronic relaxation 2 (details)
   IALGO  =     38    algorithm
   LDIAG  =      T    sub-space diagonalisation (order eigenvalues)
   LSUBROT=      F    optimize rotation matrix (better conditioning)
   TURBO    =      0    0=normal 1=particle mesh
   IRESTART =      0    0=no restart 2=restart with 2 vectors
   NREBOOT  =      0    no. of reboots
   NMIN     =      0    reboot dimension
   EREF     =   0.00    reference energy to select bands
   IMIX   =      4    mixing-type and parameters
     AMIX     =   0.40;   BMIX     =  1.00
     AMIX_MAG =   1.60;   BMIX_MAG =  1.00
     AMIN     =   0.10
     WC   =   100.;   INIMIX=   1;  MIXPRE=   1;  MAXMIX= -45

 Intra band minimization:
   WEIMIN = 0.0000     energy-eigenvalue tresh-hold
   EBREAK =  0.65E-07  absolut break condition
   DEPER  =   0.30     relativ break condition  

   TIME   =   0.40     timestep for ELM

  volume/ion in A,a.u.               =    1348.38      9099.34
  Fermi-wavevector in a.u.,A,eV,Ry     =   0.329560  0.622778  1.477727  0.108610
  Thomas-Fermi vector in A             =   1.224112
 
 Write flags
   LWAVE        =      F    write WAVECAR
   LDOWNSAMPLE  =      F    k-point downsampling of WAVECAR
   LCHARG       =      F    write CHGCAR
   LVTOT        =      F    write LOCPOT, total local potential
   LVHAR        =      F    write LOCPOT, Hartree potential only
   LELF         =      F    write electronic localiz. function (ELF)
   LORBIT       =      0    0 simple, 1 ext, 2 COOP (PROOUT), +10 PAW based schemes


 Dipole corrections
   LMONO  =      F    monopole corrections only (constant potential shift)
   LDIPOL =      F    correct potential (dipole corrections)
   IDIPOL =      0    1-x, 2-y, 3-z, 4-all directions 
   EPSILON=  1.0000000 bulk dielectric constant

 Exchange correlation treatment:
   GGA     =    PE    GGA type
   LEXCH   =     8    internal setting for exchange type
   LIBXC   =     F    Libxc                    
   VOSKOWN =     0    Vosko Wilk Nusair interpolation
   LHFCALC =     F    Hartree Fock is set to
   LHFONE  =     F    Hartree Fock one center treatment
   AEXX    =    0.0000 exact exchange contribution

 Linear response parameters
   LEPSILON=     F    determine dielectric tensor
   LRPA    =     F    only Hartree local field effects (RPA)
   LNABLA  =     F    use nabla operator in PAW spheres
   LVEL    =     F    velocity operator in full k-point grid
   CSHIFT  =0.1000    complex shift for real part using Kramers Kronig
   OMEGAMAX=  -1.0    maximum frequency
   DEG_THRESHOLD= 0.2000000E-02 threshold for treating states as degnerate
   RTIME   =   -0.100 relaxation time in fs
  (WPLASMAI=    0.000 imaginary part of plasma frequency in eV, 0.658/RTIME)
   DFIELD  = 0.0000000 0.0000000 0.0000000 field for delta impulse in time
 
  Optional k-point grid parameters
   LKPOINTS_OPT  =     F    use optional k-point grid
   KPOINTS_OPT_MODE=     1    mode for optional k-point grid
 
 Orbital magnetization related:
   ORBITALMAG=     F  switch on orbital magnetization
   LCHIMAG   =     F  perturbation theory with respect to B field
   DQ        =  0.001000  dq finite difference perturbation B field
   LLRAUG    =     F  two centre corrections for induced B field



--------------------------------------------------------------------------------------------------------


 Static calculation
 charge density and potential will be updated during run
 non-spin polarized calculation
 Variant of blocked Davidson
 Davidson routine will perform the subspace rotation
 perform sub-space diagonalisation
    after iterative eigenvector-optimisation
 modified Broyden-mixing scheme, WC =      100.0
 initial mixing is a Kerker type mixing with AMIX =  0.4000 and BMIX =      1.0000
 Hartree-type preconditioning will be used
 using additional bands          109
 real space projection scheme for non local part
 use partial core corrections
 calculate Harris-corrections to forces 
   (improved forces if not selfconsistent)
 use gradient corrections 
 use of overlap-Matrix (Vanderbilt PP)
 Gauss-broadening in eV      SIGMA  =   0.20


--------------------------------------------------------------------------------------------------------


  energy-cutoff  :      400.00
  volume of cell :    67419.14
      direct lattice vectors                 reciprocal lattice vectors
    40.700000000  0.000000000  0.000000000     0.024570025  0.000000000  0.000000000
     0.000000000 40.700000000  0.000000000     0.000000000  0.024570025  0.000000000
     0.000000000  0.000000000 40.700000000     0.000000000  0.000000000  0.024570025

  length of vectors
    40.700000000 40.700000000 40.700000000     0.024570025  0.024570025  0.024570025


 
 k-points in units of 2pi/SCALE and weight: KPOINTS created by Atomic Simulation Env
   0.00000000  0.00000000  0.00000000       1.000
 
 k-points in reciprocal lattice and weights: KPOINTS created by Atomic Simulation Env
   0.00000000  0.00000000  0.00000000       1.000
 
 position of ions in fractional coordinates (direct lattice) 
   0.47481572  0.52518428  0.52518428
   0.52518428  0.52518428  0.47481572
   0.52518428  0.47481572  0.52518428
   0.52518428  0.57555283  0.52518428
   0.52518428  0.52518428  0.57555283
   0.42444717  0.52518428  0.47481572
   0.47481572  0.57555283  0.47481572
   0.47481572  0.47481572  0.47481572
   0.42444717  0.47481572  0.52518428
   0.47481572  0.47481572  0.57555283
   0.47481572  0.52518428  0.42444717
   0.47481572  0.42444717  0.52518428
   0.57555283  0.52518428  0.52518428
   0.57555283  0.47481572  0.47481572
   0.52518428  0.47481572  0.42444717
   0.52518428  0.42444717  0.47481572
   0.42444717  0.57555283  0.52518428
   0.42444717  0.52518428  0.57555283
   0.47481572  0.57555283  0.57555283
   0.57555283  0.57555283  0.47481572
   0.52518428  0.57555283  0.42444717
   0.57555283  0.42444717  0.52518428
   0.57555283  0.47481572  0.57555283
   0.52518428  0.42444717  0.57555283
   0.47481572  0.62592138  0.52518428
   0.52518428  0.62592138  0.47481572
   0.62592138  0.47481572  0.52518428
   0.47481572  0.52518428  0.62592138
   0.52518428  0.47481572  0.62592138
   0.57555283  0.62592138  0.52518428
   0.57555283  0.57555283  0.57555283
   0.52518428  0.62592138  0.57555283
   0.57555283  0.52518428  0.62592138
   0.52518428  0.57555283  0.62592138
   0.62592138  0.52518428  0.57555283
   0.57555283  0.52518428  0.42444717
   0.62592138  0.57555283  0.52518428
   0.62592138  0.52518428  0.47481572
   0.37407862  0.52518428  0.52518428
   0.37407862  0.47481572  0.47481572
   0.42444717  0.47481572  0.42444717
   0.42444717  0.42444717  0.47481572
   0.47481572  0.42444717  0.42444717
   0.52518428  0.52518428  0.37407862
   0.47481572  0.47481572  0.37407862
   0.52518428  0.37407862  0.52518428
   0.47481572  0.37407862  0.47481572
   0.37407862  0.42444717  0.42444717
   0.42444717  0.42444717  0.37407862
   0.42444717  0.37407862  0.42444717
 
 position of ions in cartesian coordinates  (Angst):
  19.32500000 21.37500000 21.37500000
  21.37500000 21.37500000 19.32500000
  21.37500000 19.32500000 21.37500000
  21.37500000 23.42500000 21.37500000
  21.37500000 21.37500000 23.42500000
  17.27500000 21.37500000 19.32500000
  19.32500000 23.42500000 19.32500000
  19.32500000 19.32500000 19.32500000
  17.27500000 19.32500000 21.37500000
  19.32500000 19.32500000 23.42500000
  19.32500000 21.37500000 17.27500000
  19.32500000 17.27500000 21.37500000
  23.42500000 21.37500000 21.37500000
  23.42500000 19.32500000 19.32500000
  21.37500000 19.32500000 17.27500000
  21.37500000 17.27500000 19.32500000
  17.27500000 23.42500000 21.37500000
  17.27500000 21.37500000 23.42500000
  19.32500000 23.42500000 23.42500000
  23.42500000 23.42500000 19.32500000
  21.37500000 23.42500000 17.27500000
  23.42500000 17.27500000 21.37500000
  23.42500000 19.32500000 23.42500000
  21.37500000 17.27500000 23.42500000
  19.32500000 25.47500000 21.37500000
  21.37500000 25.47500000 19.32500000
  25.47500000 19.32500000 21.37500000
  19.32500000 21.37500000 25.47500000
  21.37500000 19.32500000 25.47500000
  23.42500000 25.47500000 21.37500000
  23.42500000 23.42500000 23.42500000
  21.37500000 25.47500000 23.42500000
  23.42500000 21.37500000 25.47500000
  21.37500000 23.42500000 25.47500000
  25.47500000 21.37500000 23.42500000
  23.42500000 21.37500000 17.27500000
  25.47500000 23.42500000 21.37500000
  25.47500000 21.37500000 19.32500000
  15.22500000 21.37500000 21.37500000
  15.22500000 19.32500000 19.32500000
  17.27500000 19.32500000 17.27500000
  17.27500000 17.27500000 19.32500000
  19.32500000 17.27500000 17.27500000
  21.37500000 21.37500000 15.22500000
  19.32500000 19.32500000 15.22500000
  21.37500000 15.22500000 21.37500000
  19.32500000 15.22500000 19.32500000
  15.22500000 17.27500000 17.27500000
  17.27500000 17.27500000 15.22500000
  17.27500000 15.22500000 17.27500000
 


--------------------------------------------------------------------------------------------------------


 use serial FFT for orbitals x direction half grid
 k-point   1 :   0.0000 0.0000 0.0000  plane waves:  612315

 maximum and minimum number of plane-waves per node :    612315   612315

 maximum number of plane-waves:    612315
 maximum index in each direction: 
   IXMAX=   66   IYMAX=   66   IZMAX=   66
   IXMIN=    0   IYMIN=  -66   IZMIN=  -66


 serial   3D FFT for wavefunctions
 parallel 3D FFT for charge:
    minimum data exchange during FFTs selected (reduces bandwidth)


 total amount of memory used by VASP MPI-rank0  1114803. kBytes
=======================================================================

   base      :      30000. kBytes
   nonlr-proj:      35253. kBytes
   fftplans  :     137265. kBytes
   grid      :     872674. kBytes
   one-center:        388. kBytes
   wavefun   :      39223. kBytes
 
     INWAV:  cpu time      0.0000: real time      0.0034
 Broyden mixing: mesh for mixing (old mesh)
   NGX =133   NGY =133   NGZ =133
  (NGX  =540   NGY  =540   NGZ  =540)
  gives a total of ****** points

 initial charge density was supplied:
 charge density of overlapping atoms calculated
 number of electron     550.0000000 magnetization 
 keeping initial charge density in first step


--------------------------------------------------------------------------------------------------------


 Maximum index for non-local projection operator         4476
 Maximum index for augmentation-charges          644 (set IRDMAX)


--------------------------------------------------------------------------------------------------------


 First call to EWALD:  gamma=   0.044
 Maximum number of real-space cells 3x 3x 3
 Maximum number of reciprocal cells 3x 3x 3

    FEWALD:  cpu time      0.0014: real time      0.0014


--------------------------------------- Iteration      1(   1)  ---------------------------------------


    POTLOK:  cpu time      1.3297: real time      1.5556
    SETDIJ:  cpu time      0.0032: real time      0.0033
     EDDAV:  cpu time     12.8900: real time     12.9918
       DOS:  cpu time      0.0027: real time      0.0029
    --------------------------------------------
      LOOP:  cpu time     14.2257: real time     14.5537

 eigenvalue-minimisations  :   768
 total energy-change (2. order) : 0.4976475E+04  (-0.8455079E+04)
 number of electron     550.0000000 magnetization 
 augmentation part      550.0000000 magnetization 

 Free energy of the ion-electron system (eV)
  ---------------------------------------------------
  alpha Z        PSCENC =        31.54067343
  Ewald energy   TEWEN  =    245829.73528956
  -Hartree energ DENC   =   -295215.64056927
  -exchange      EXHF   =         0.00000000
  -V(xc)+E(xc)   XCENC  =      -551.14573697
  PAW double counting   =     50173.10746633   -47867.46371153
  entropy T*S    EENTRO =        -3.44358336
  eigenvalues    EBANDS =       716.86414605
  atomic energy  EATOM  =     51862.92141881
  Solvation  Ediel_sol  =         0.00000000
  ---------------------------------------------------
  free energy    TOTEN  =      4976.47539305 eV

  energy without entropy =     4979.91897641  energy(sigma->0) =     4978.19718473


--------------------------------------------------------------------------------------------------------




--------------------------------------- Iteration      1(   2)  ---------------------------------------


     EDDAV:  cpu time     22.5777: real time     22.7314
       DOS:  cpu time      0.0037: real time      0.0037
    --------------------------------------------
      LOOP:  cpu time     22.5814: real time     22.7351

 eigenvalue-minimisations  :  1536
 total energy-change (2. order) :-0.2535673E+04  (-0.2313886E+04)
 number of electron     550.0000000 magnetization 
 augmentation part      550.0000000 magnetization 

 Free energy of the ion-electron system (eV)
  ---------------------------------------------------
  alpha Z        PSCENC =        31.54067343
  Ewald energy   TEWEN  =    245829.73528956
  -Hartree energ DENC   =   -295215.64056927
  -exchange      EXHF   =         0.00000000
  -V(xc)+E(xc)   XCENC  =      -551.14573697
  PAW double counting   =     50173.10746633   -47867.46371153
  entropy T*S    EENTRO =        -5.31951526
  eigenvalues    EBANDS =     -1816.93271956
  atomic energy  EATOM  =     51862.92141881
  Solvation  Ediel_sol  =         0.00000000
  ---------------------------------------------------
  free energy    TOTEN  =      2440.80259553 eV

  energy without entropy =     2446.12211080  energy(sigma->0) =     2443.46235316


--------------------------------------------------------------------------------------------------------




--------------------------------------- Iteration      1(   3)  ---------------------------------------


     EDDAV:  cpu time     20.1359: real time     20.2662
       DOS:  cpu time      0.0005: real time      0.0005
    --------------------------------------------
      LOOP:  cpu time     20.1364: real time     20.2668

 eigenvalue-minimisations  :  1344
 total energy-change (2. order) :-0.2196482E+04  (-0.2095286E+04)
 number of electron     550.0000000 magnetization 
 augmentation part      550.0000000 magnetization 

 Free energy of the ion-electron system (eV)
  ---------------------------------------------------
  alpha Z        PSCENC =        31.54067343
  Ewald energy   TEWEN  =    245829.73528956
  -Hartree energ DENC   =   -295215.64056927
  -exchange      EXHF   =         0.00000000
  -V(xc)+E(xc)   XCENC  =      -551.14573697
  PAW double counting   =     50173.10746633   -47867.46371153
  entropy T*S    EENTRO =        -0.56382401
  eigenvalues    EBANDS =     -4018.17044489
  atomic energy  EATOM  =     51862.92141881
  Solvation  Ediel_sol  =         0.00000000
  ---------------------------------------------------
  free energy    TOTEN  =       244.32056145 eV

  energy without entropy =      244.88438547  energy(sigma->0) =      244.60247346


--------------------------------------------------------------------------------------------------------




--------------------------------------- Iteration      1(   4)  ---------------------------------------


     EDDAV:  cpu time     16.5087: real time     16.6153
       DOS:  cpu time      0.0005: real time      0.0005
    --------------------------------------------
      LOOP:  cpu time     16.5092: real time     16.6159

 eigenvalue-minimisations  :  1056
 total energy-change (2. order) :-0.3498549E+03  (-0.3120298E+03)
 number of electron     550.0000000 magnetization 
 augmentation part      550.0000000 magnetization 

 Free energy of the ion-electron system (eV)
  ---------------------------------------------------
  alpha Z        PSCENC =        31.54067343
  Ewald energy   TEWEN  =    245829.73528956
  -Hartree energ DENC   =   -295215.64056927
  -exchange      EXHF   =         0.00000000
  -V(xc)+E(xc)   XCENC  =      -551.14573697
  PAW double counting   =     50173.10746633   -47867.46371153
  entropy T*S    EENTRO =        -0.37186166
  eigenvalues    EBANDS =     -4368.21733302
  atomic energy  EATOM  =     51862.92141881
  Solvation  Ediel_sol  =         0.00000000
  ---------------------------------------------------
  free energy    TOTEN  =      -105.53436433 eV

  energy without entropy =     -105.16250267  energy(sigma->0) =     -105.34843350


--------------------------------------------------------------------------------------------------------




--------------------------------------- Iteration      1(   5)  ---------------------------------------


     EDDAV:  cpu time     12.8899: real time     12.9727
       DOS:  cpu time      0.0024: real time      0.0024
    CHARGE:  cpu time      4.1500: real time      4.2144
    MIXING:  cpu time      0.0238: real time      0.0243
    --------------------------------------------
      LOOP:  cpu time     17.0661: real time     17.2138

 eigenvalue-minimisations  :   768
 total energy-change (2. order) :-0.1209228E+02  (-0.1188746E+02)
 number of electron     550.0000061 magnetization 
 augmentation part      258.1087080 magnetization 

 Broyden mixing:
  rms(total) = 0.25274E+01    rms(broyden)= 0.25274E+01
  rms(prec ) = 0.25613E+01
  weight for this iteration     100.00

 Free energy of the ion-electron system (eV)
  ---------------------------------------------------
  alpha Z        PSCENC =        31.54067343
  Ewald energy   TEWEN  =    245829.73528956
  -Hartree energ DENC   =   -295215.64056927
  -exchange      EXHF   =         0.00000000
  -V(xc)+E(xc)   XCENC  =      -551.14573697
  PAW double counting   =     50173.10746633   -47867.46371153
  entropy T*S    EENTRO =        -0.37190769
  eigenvalues    EBANDS =     -4380.30956264
  atomic energy  EATOM  =     51862.92141881
  Solvation  Ediel_sol  =         0.00000000
  ---------------------------------------------------
  free energy    TOTEN  =      -117.62663998 eV

  energy without entropy =     -117.25473229  energy(sigma->0) =     -117.44068613


--------------------------------------------------------------------------------------------------------




--------------------------------------- Iteration      1(   6)  ---------------------------------------


    POTLOK:  cpu time      1.1115: real time      1.1181
    SETDIJ:  cpu time      0.0034: real time      0.0034
     EDDAV:  cpu time     15.2841: real time     15.3845
       DOS:  cpu time      0.0006: real time      0.0006
    CHARGE:  cpu time      4.1376: real time      4.1593
    MIXING:  cpu time      0.0214: real time      0.0216
    --------------------------------------------
      LOOP:  cpu time     20.5586: real time     20.6875

 eigenvalue-minimisations  :   960
 total energy-change (2. order) : 0.7955359E+01  (-0.3112441E+01)
 number of electron     550.0000064 magnetization 
 augmentation part      263.6568373 magnetization 

 Broyden mixing:
  rms(total) = 0.16669E+01    rms(broyden)= 0.16669E+01
  rms(prec ) = 0.16706E+01
  weight for this iteration     100.00

 eigenvalues of (default mixing * dielectric matrix)
  average eigenvalue GAMMA=   1.2330
  1.2330

 Free energy of the ion-electron system (eV)
  ---------------------------------------------------
  alpha Z        PSCENC =        31.54067343
  Ewald energy   TEWEN  =    245829.73528956
  -Hartree energ DENC   =   -295010.55150644
  -exchange      EXHF   =         0.00000000
  -V(xc)+E(xc)   XCENC  =      -563.94535031
  PAW double counting   =     51690.45613905   -49419.26856875
  entropy T*S    EENTRO =        -0.37704805
  eigenvalues    EBANDS =     -4530.18232874
  atomic energy  EATOM  =     51862.92141881
  Solvation  Ediel_sol  =         0.00000000
  ---------------------------------------------------
  free energy    TOTEN  =      -109.67128144 eV

  energy without entropy =     -109.29423338  energy(sigma->0) =     -109.48275741


--------------------------------------------------------------------------------------------------------




--------------------------------------- Iteration      1(   7)  ---------------------------------------


    POTLOK:  cpu time      1.1256: real time      1.1327
    SETDIJ:  cpu time      0.0040: real time      0.0040
     EDDAV:  cpu time     15.2558: real time     15.3613
       DOS:  cpu time      0.0025: real time      0.0025
    CHARGE:  cpu time      4.1782: real time      4.2062
    MIXING:  cpu time      0.0230: real time      0.0231
    --------------------------------------------
      LOOP:  cpu time     20.5889: real time     20.7299

 eigenvalue-minimisations  :   960
 total energy-change (2. order) : 0.4325191E+00  (-0.1451556E+00)
 number of electron     550.0000064 magnetization 
 augmentation part      264.1269499 magnetization 

 Broyden mixing:
  rms(total) = 0.85902E+00    rms(broyden)= 0.85902E+00
  rms(prec ) = 0.86002E+00
  weight for this iteration     100.00

 eigenvalues of (default mixing * dielectric matrix)
  average eigenvalue GAMMA=   1.7168
  1.0597  2.3739

 Free energy of the ion-electron system (eV)
  ---------------------------------------------------
  alpha Z        PSCENC =        31.54067343
  Ewald energy   TEWEN  =    245829.73528956
  -Hartree energ DENC   =   -295040.39440743
  -exchange      EXHF   =         0.00000000
  -V(xc)+E(xc)   XCENC  =      -566.22444102
  PAW double counting   =     52731.83838125   -50488.76218144
  entropy T*S    EENTRO =        -0.38586146
  eigenvalues    EBANDS =     -4469.50763404
  atomic energy  EATOM  =     51862.92141881
  Solvation  Ediel_sol  =         0.00000000
  ---------------------------------------------------
  free energy    TOTEN  =      -109.23876234 eV

  energy without entropy =     -108.85290088  energy(sigma->0) =     -109.04583161


--------------------------------------------------------------------------------------------------------




--------------------------------------- Iteration      1(   8)  ---------------------------------------


    POTLOK:  cpu time      1.1118: real time      1.1574
    SETDIJ:  cpu time      0.0030: real time      0.0030
     EDDAV:  cpu time     16.5694: real time     16.7138
       DOS:  cpu time      0.0005: real time      0.0005
    CHARGE:  cpu time      4.1566: real time      4.1825
    MIXING:  cpu time      0.0308: real time      0.0310
    --------------------------------------------
      LOOP:  cpu time     21.8722: real time     22.0882

 eigenvalue-minimisations  :  1056
 total energy-change (2. order) : 0.7921130E-01  (-0.2592612E-01)
 number of electron     550.0000064 magnetization 
 augmentation part      264.1463933 magnetization 

 Broyden mixing:
  rms(total) = 0.95231E-01    rms(broyden)= 0.95227E-01
  rms(prec ) = 0.98585E-01
  weight for this iteration     100.00

 eigenvalues of (default mixing * dielectric matrix)
  average eigenvalue GAMMA=   1.4655
  2.4589  1.0827  0.8548

 Free energy of the ion-electron system (eV)
  ---------------------------------------------------
  alpha Z        PSCENC =        31.54067343
  Ewald energy   TEWEN  =    245829.73528956
  -Hartree energ DENC   =   -295071.81647707
  -exchange      EXHF   =         0.00000000
  -V(xc)+E(xc)   XCENC  =      -567.29456446
  PAW double counting   =     53809.43448234   -51592.18091761
  entropy T*S    EENTRO =        -0.38666695
  eigenvalues    EBANDS =     -4411.11278909
  atomic energy  EATOM  =     51862.92141881
  Solvation  Ediel_sol  =         0.00000000
  ---------------------------------------------------
  free energy    TOTEN  =      -109.15955103 eV

  energy without entropy =     -108.77288408  energy(sigma->0) =     -108.96621756


--------------------------------------------------------------------------------------------------------




--------------------------------------- Iteration      1(   9)  ---------------------------------------


    POTLOK:  cpu time      1.1252: real time      1.1548
    SETDIJ:  cpu time      0.0028: real time      0.0028
     EDDAV:  cpu time     15.2856: real time     15.4744
       DOS:  cpu time      0.0027: real time      0.0027
    CHARGE:  cpu time      4.4170: real time      4.4465
    MIXING:  cpu time      0.0253: real time      0.0374
    --------------------------------------------
      LOOP:  cpu time     20.8585: real time     21.1187

 eigenvalue-minimisations  :   960
 total energy-change (2. order) : 0.8322071E-02  (-0.1066415E-01)
 number of electron     550.0000064 magnetization 
 augmentation part      264.1479720 magnetization 

 Broyden mixing:
  rms(total) = 0.30845E-01    rms(broyden)= 0.30844E-01
  rms(prec ) = 0.33640E-01
  weight for this iteration     100.00

 eigenvalues of (default mixing * dielectric matrix)
  average eigenvalue GAMMA=   1.4193
  2.4841  1.3953  1.0352  0.7624

 Free energy of the ion-electron system (eV)
  ---------------------------------------------------
  alpha Z        PSCENC =        31.54067343
  Ewald energy   TEWEN  =    245829.73528956
  -Hartree energ DENC   =   -295080.91723477
  -exchange      EXHF   =         0.00000000
  -V(xc)+E(xc)   XCENC  =      -567.26604432
  PAW double counting   =     53876.43449458   -51660.25467566
  entropy T*S    EENTRO =        -0.38771476
  eigenvalues    EBANDS =     -4400.95743583
  atomic energy  EATOM  =     51862.92141881
  Solvation  Ediel_sol  =         0.00000000
  ---------------------------------------------------
  free energy    TOTEN  =      -109.15122896 eV

  energy without entropy =     -108.76351420  energy(sigma->0) =     -108.95737158


--------------------------------------------------------------------------------------------------------




--------------------------------------- Iteration      1(  10)  ---------------------------------------


    POTLOK:  cpu time      1.1014: real time      1.1517
    SETDIJ:  cpu time      0.0031: real time      0.0031
     EDDAV:  cpu time     16.3284: real time     16.7885
       DOS:  cpu time      0.0005: real time      0.0005
    CHARGE:  cpu time      4.0863: real time      4.3276
    MIXING:  cpu time      0.0359: real time      0.0364
    --------------------------------------------
      LOOP:  cpu time     21.5556: real time     22.3078

 eigenvalue-minimisations  :  1056
 total energy-change (2. order) : 0.8357268E-03  (-0.1932246E-02)
 number of electron     550.0000064 magnetization 
 augmentation part      264.1457251 magnetization 

 Broyden mixing:
  rms(total) = 0.15562E-01    rms(broyden)= 0.15561E-01
  rms(prec ) = 0.18048E-01
  weight for this iteration     100.00

 eigenvalues of (default mixing * dielectric matrix)
  average eigenvalue GAMMA=   1.3648
  2.4882  1.5934  1.0502  0.9961  0.6960

 Free energy of the ion-electron system (eV)
  ---------------------------------------------------
  alpha Z        PSCENC =        31.54067343
  Ewald energy   TEWEN  =    245829.73528956
  -Hartree energ DENC   =   -295091.86962652
  -exchange      EXHF   =         0.00000000
  -V(xc)+E(xc)   XCENC  =      -567.18401064
  PAW double counting   =     53902.50474655   -51686.31250373
  entropy T*S    EENTRO =        -0.38681358
  eigenvalues    EBANDS =     -4390.09956711
  atomic energy  EATOM  =     51862.92141881
  Solvation  Ediel_sol  =         0.00000000
  ---------------------------------------------------
  free energy    TOTEN  =      -109.15039324 eV

  energy without entropy =     -108.76357965  energy(sigma->0) =     -108.95698644


--------------------------------------------------------------------------------------------------------




--------------------------------------- Iteration      1(  11)  ---------------------------------------


    POTLOK:  cpu time      1.1234: real time      1.3289
    SETDIJ:  cpu time      0.0030: real time      0.0031
     EDDAV:  cpu time     16.2939: real time     16.9810
       DOS:  cpu time      0.0005: real time      0.0005
    CHARGE:  cpu time      4.2107: real time      4.3848
    MIXING:  cpu time      0.0294: real time      0.0295
    --------------------------------------------
      LOOP:  cpu time     21.6610: real time     22.7277

 eigenvalue-minimisations  :  1056
 total energy-change (2. order) :-0.6192139E-03  (-0.2701516E-03)
 number of electron     550.0000064 magnetization 
 augmentation part      264.1451723 magnetization 

 Broyden mixing:
  rms(total) = 0.95000E-02    rms(broyden)= 0.94998E-02
  rms(prec ) = 0.11834E-01
  weight for this iteration     100.00

 eigenvalues of (default mixing * dielectric matrix)
  average eigenvalue GAMMA=   1.4388
  2.5319  2.0938  1.3787  1.0415  0.9359  0.6509

 Free energy of the ion-electron system (eV)
  ---------------------------------------------------
  alpha Z        PSCENC =        31.54067343
  Ewald energy   TEWEN  =    245829.73528956
  -Hartree energ DENC   =   -295102.26076597
  -exchange      EXHF   =         0.00000000
  -V(xc)+E(xc)   XCENC  =      -567.12937919
  PAW double counting   =     53914.82616510   -51698.48468279
  entropy T*S    EENTRO =        -0.38700789
  eigenvalues    EBANDS =     -4379.91272351
  atomic energy  EATOM  =     51862.92141881
  Solvation  Ediel_sol  =         0.00000000
  ---------------------------------------------------
  free energy    TOTEN  =      -109.15101245 eV

  energy without entropy =     -108.76400456  energy(sigma->0) =     -108.95750851


--------------------------------------------------------------------------------------------------------




--------------------------------------- Iteration      1(  12)  ---------------------------------------


    POTLOK:  cpu time      1.1199: real time      1.1448
    SETDIJ:  cpu time      0.0033: real time      0.0033
     EDDAV:  cpu time     17.7521: real time     18.3718
       DOS:  cpu time      0.0017: real time      0.0017
    CHARGE:  cpu time      4.1209: real time      4.3429
    MIXING:  cpu time      0.0238: real time      0.0240
    --------------------------------------------
      LOOP:  cpu time     23.0217: real time     23.8885

 eigenvalue-minimisations  :  1152
 total energy-change (2. order) :-0.1820946E-02  (-0.1189767E-03)
 number of electron     550.0000064 magnetization 
 augmentation part      264.1455401 magnetization 

 Broyden mixing:
  rms(total) = 0.52524E-02    rms(broyden)= 0.52524E-02
  rms(prec ) = 0.70435E-02
  weight for this iteration     100.00

 eigenvalues of (default mixing * dielectric matrix)
  average eigenvalue GAMMA=   1.4852
  3.0151  2.4802  1.1432  1.1432  0.9773  0.9773  0.6599

 Free energy of the ion-electron system (eV)
  ---------------------------------------------------
  alpha Z        PSCENC =        31.54067343
  Ewald energy   TEWEN  =    245829.73528956
  -Hartree energ DENC   =   -295116.59410176
  -exchange      EXHF   =         0.00000000
  -V(xc)+E(xc)   XCENC  =      -567.06809753
  PAW double counting   =     53924.85141580   -51708.36614959
  entropy T*S    EENTRO =        -0.38703775
  eigenvalues    EBANDS =     -4365.78624437
  atomic energy  EATOM  =     51862.92141881
  Solvation  Ediel_sol  =         0.00000000
  ---------------------------------------------------
  free energy    TOTEN  =      -109.15283340 eV

  energy without entropy =     -108.76579564  energy(sigma->0) =     -108.95931452


--------------------------------------------------------------------------------------------------------




--------------------------------------- Iteration      1(  13)  ---------------------------------------


    POTLOK:  cpu time      1.1385: real time      1.3192
    SETDIJ:  cpu time      0.0043: real time      0.0043
     EDDAV:  cpu time     12.6711: real time     13.2216
       DOS:  cpu time      0.0023: real time      0.0023
    CHARGE:  cpu time      4.3711: real time      4.5426
    MIXING:  cpu time      0.0371: real time      0.0373
    --------------------------------------------
      LOOP:  cpu time     18.2244: real time     19.1274

 eigenvalue-minimisations  :   768
 total energy-change (2. order) :-0.2268573E-02  (-0.5149071E-04)
 number of electron     550.0000064 magnetization 
 augmentation part      264.1435636 magnetization 

 Broyden mixing:
  rms(total) = 0.35070E-02    rms(broyden)= 0.35069E-02
  rms(prec ) = 0.46409E-02
  weight for this iteration     100.00

 eigenvalues of (default mixing * dielectric matrix)
  average eigenvalue GAMMA=   1.5744
  3.4772  2.5530  1.7068  1.3053  0.6790  1.0358  0.9191  0.9191

 Free energy of the ion-electron system (eV)
  ---------------------------------------------------
  alpha Z        PSCENC =        31.54067343
  Ewald energy   TEWEN  =    245829.73528956
  -Hartree energ DENC   =   -295127.40654631
  -exchange      EXHF   =         0.00000000
  -V(xc)+E(xc)   XCENC  =      -567.01602870
  PAW double counting   =     53926.24431461   -51709.64068708
  entropy T*S    EENTRO =        -0.38696786
  eigenvalues    EBANDS =     -4355.14656843
  atomic energy  EATOM  =     51862.92141881
  Solvation  Ediel_sol  =         0.00000000
  ---------------------------------------------------
  free energy    TOTEN  =      -109.15510197 eV

  energy without entropy =     -108.76813411  energy(sigma->0) =     -108.96161804


--------------------------------------------------------------------------------------------------------




--------------------------------------- Iteration      1(  14)  ---------------------------------------


    POTLOK:  cpu time      1.1042: real time      1.1624
    SETDIJ:  cpu time      0.0029: real time      0.0029
     EDDAV:  cpu time     12.7250: real time     13.3705
       DOS:  cpu time      0.0006: real time      0.0006
    CHARGE:  cpu time      4.1821: real time      4.3461
    MIXING:  cpu time      0.0238: real time      0.0239
    --------------------------------------------
      LOOP:  cpu time     18.0386: real time     18.9065

 eigenvalue-minimisations  :   768
 total energy-change (2. order) :-0.3249039E-02  (-0.4126938E-04)
 number of electron     550.0000064 magnetization 
 augmentation part      264.1420719 magnetization 

 Broyden mixing:
  rms(total) = 0.26170E-02    rms(broyden)= 0.26169E-02
  rms(prec ) = 0.31344E-02
  weight for this iteration     100.00

 eigenvalues of (default mixing * dielectric matrix)
  average eigenvalue GAMMA=   1.6346
  4.1903  2.4826  2.1694  1.2622  1.0831  0.9991  0.9991  0.6938  0.8318

 Free energy of the ion-electron system (eV)
  ---------------------------------------------------
  alpha Z        PSCENC =        31.54067343
  Ewald energy   TEWEN  =    245829.73528956
  -Hartree energ DENC   =   -295136.49315459
  -exchange      EXHF   =         0.00000000
  -V(xc)+E(xc)   XCENC  =      -566.97894958
  PAW double counting   =     53919.21650946   -51702.56958255
  entropy T*S    EENTRO =        -0.38698334
  eigenvalues    EBANDS =     -4346.14357222
  atomic energy  EATOM  =     51862.92141881
  Solvation  Ediel_sol  =         0.00000000
  ---------------------------------------------------
  free energy    TOTEN  =      -109.15835101 eV

  energy without entropy =     -108.77136767  energy(sigma->0) =     -108.96485934


--------------------------------------------------------------------------------------------------------




--------------------------------------- Iteration      1(  15)  ---------------------------------------


    POTLOK:  cpu time      1.1064: real time      1.1451
    SETDIJ:  cpu time      0.0028: real time      0.0028
     EDDAV:  cpu time     11.5776: real time     12.0267
       DOS:  cpu time      0.0023: real time      0.0023
    CHARGE:  cpu time      4.3085: real time      4.4817
    MIXING:  cpu time      0.0288: real time      0.0291
    --------------------------------------------
      LOOP:  cpu time     17.0263: real time     17.6878

 eigenvalue-minimisations  :   672
 total energy-change (2. order) :-0.1820732E-02  (-0.1419850E-04)
 number of electron     550.0000064 magnetization 
 augmentation part      264.1412511 magnetization 

 Broyden mixing:
  rms(total) = 0.12853E-02    rms(broyden)= 0.12853E-02
  rms(prec ) = 0.17022E-02
  weight for this iteration     100.00

 eigenvalues of (default mixing * dielectric matrix)
  average eigenvalue GAMMA=   1.7696
  5.3655  2.5493  2.4880  1.5039  1.3096  0.9759  0.9759  1.0241  0.6869  0.8166

 Free energy of the ion-electron system (eV)
  ---------------------------------------------------
  alpha Z        PSCENC =        31.54067343
  Ewald energy   TEWEN  =    245829.73528956
  -Hartree energ DENC   =   -295141.04782026
  -exchange      EXHF   =         0.00000000
  -V(xc)+E(xc)   XCENC  =      -566.96474515
  PAW double counting   =     53917.36474422   -51700.74018828
  entropy T*S    EENTRO =        -0.38700554
  eigenvalues    EBANDS =     -4341.58253853
  atomic energy  EATOM  =     51862.92141881
  Solvation  Ediel_sol  =         0.00000000
  ---------------------------------------------------
  free energy    TOTEN  =      -109.16017174 eV

  energy without entropy =     -108.77316620  energy(sigma->0) =     -108.96666897


--------------------------------------------------------------------------------------------------------




--------------------------------------- Iteration      1(  16)  ---------------------------------------


    POTLOK:  cpu time      1.1122: real time      1.1413
    SETDIJ:  cpu time      0.0050: real time      0.0051
     EDDAV:  cpu time     12.9973: real time     13.5853
       DOS:  cpu time      0.0005: real time      0.0005
    CHARGE:  cpu time      4.2384: real time      4.4098
    MIXING:  cpu time      0.0296: real time      0.0298
    --------------------------------------------
      LOOP:  cpu time     18.3831: real time     19.1718

 eigenvalue-minimisations  :   768
 total energy-change (2. order) :-0.1814842E-02  (-0.1399231E-04)
 number of electron     550.0000064 magnetization 
 augmentation part      264.1410804 magnetization 

 Broyden mixing:
  rms(total) = 0.86448E-03    rms(broyden)= 0.86446E-03
  rms(prec ) = 0.10634E-02
  weight for this iteration     100.00

 eigenvalues of (default mixing * dielectric matrix)
  average eigenvalue GAMMA=   1.7812
  5.7481  2.8876  2.4931  1.6385  1.2149  1.0045  1.0045  1.0986  0.6822  0.9107
  0.9107

 Free energy of the ion-electron system (eV)
  ---------------------------------------------------
  alpha Z        PSCENC =        31.54067343
  Ewald energy   TEWEN  =    245829.73528956
  -Hartree energ DENC   =   -295144.93509417
  -exchange      EXHF   =         0.00000000
  -V(xc)+E(xc)   XCENC  =      -566.95487114
  PAW double counting   =     53914.97801638   -51698.36143795
  entropy T*S    EENTRO =        -0.38699073
  eigenvalues    EBANDS =     -4337.69899078
  atomic energy  EATOM  =     51862.92141881
  Solvation  Ediel_sol  =         0.00000000
  ---------------------------------------------------
  free energy    TOTEN  =      -109.16198658 eV

  energy without entropy =     -108.77499586  energy(sigma->0) =     -108.96849122


--------------------------------------------------------------------------------------------------------




--------------------------------------- Iteration      1(  17)  ---------------------------------------


    POTLOK:  cpu time      1.1272: real time      1.1634
    SETDIJ:  cpu time      0.0045: real time      0.0045
     EDDAV:  cpu time     10.4230: real time     10.8777
       DOS:  cpu time      0.0023: real time      0.0023
    CHARGE:  cpu time      4.2978: real time      4.4633
    MIXING:  cpu time      0.0306: real time      0.0308
    --------------------------------------------
      LOOP:  cpu time     15.8854: real time     16.5420

 eigenvalue-minimisations  :   576
 total energy-change (2. order) :-0.9871877E-03  (-0.3252517E-05)
 number of electron     550.0000064 magnetization 
 augmentation part      264.1407111 magnetization 

 Broyden mixing:
  rms(total) = 0.48413E-03    rms(broyden)= 0.48412E-03
  rms(prec ) = 0.62550E-03
  weight for this iteration     100.00

 eigenvalues of (default mixing * dielectric matrix)
  average eigenvalue GAMMA=   1.8409
  6.3738  3.2257  2.4819  2.0353  1.4247  1.0013  1.0013  1.0989  1.0695  0.6807
  0.8489  0.8489

 Free energy of the ion-electron system (eV)
  ---------------------------------------------------
  alpha Z        PSCENC =        31.54067343
  Ewald energy   TEWEN  =    245829.73528956
  -Hartree energ DENC   =   -295146.23645464
  -exchange      EXHF   =         0.00000000
  -V(xc)+E(xc)   XCENC  =      -566.95309614
  PAW double counting   =     53914.60391073   -51697.99210712
  entropy T*S    EENTRO =        -0.38698923
  eigenvalues    EBANDS =     -4336.39561917
  atomic energy  EATOM  =     51862.92141881
  Solvation  Ediel_sol  =         0.00000000
  ---------------------------------------------------
  free energy    TOTEN  =      -109.16297377 eV

  energy without entropy =     -108.77598454  energy(sigma->0) =     -108.96947915


--------------------------------------------------------------------------------------------------------




--------------------------------------- Iteration      1(  18)  ---------------------------------------


    POTLOK:  cpu time      1.1062: real time      1.2496
    SETDIJ:  cpu time      0.0029: real time      0.0030
     EDDAV:  cpu time     12.7594: real time     13.3803
       DOS:  cpu time      0.0082: real time      0.0083
    CHARGE:  cpu time      4.4998: real time      4.6995
    MIXING:  cpu time      0.0295: real time      0.0296
    --------------------------------------------
      LOOP:  cpu time     18.4061: real time     19.3703

 eigenvalue-minimisations  :   768
 total energy-change (2. order) :-0.7405211E-03  (-0.1836787E-05)
 number of electron     550.0000064 magnetization 
 augmentation part      264.1408089 magnetization 

 Broyden mixing:
  rms(total) = 0.27556E-03    rms(broyden)= 0.27556E-03
  rms(prec ) = 0.36587E-03
  weight for this iteration     100.00

 eigenvalues of (default mixing * dielectric matrix)
  average eigenvalue GAMMA=   1.9341
  6.9705  3.8803  2.5334  2.4254  1.6244  1.3036  1.0029  1.0029  0.6817  0.9853
  0.9247  0.9247  0.8840

 Free energy of the ion-electron system (eV)
  ---------------------------------------------------
  alpha Z        PSCENC =        31.54067343
  Ewald energy   TEWEN  =    245829.73528956
  -Hartree energ DENC   =   -295147.18131712
  -exchange      EXHF   =         0.00000000
  -V(xc)+E(xc)   XCENC  =      -566.95280672
  PAW double counting   =     53914.99757239   -51698.38411947
  entropy T*S    EENTRO =        -0.38698514
  eigenvalues    EBANDS =     -4335.45344003
  atomic energy  EATOM  =     51862.92141881
  Solvation  Ediel_sol  =         0.00000000
  ---------------------------------------------------
  free energy    TOTEN  =      -109.16371429 eV

  energy without entropy =     -108.77672915  energy(sigma->0) =     -108.97022172


--------------------------------------------------------------------------------------------------------




--------------------------------------- Iteration      1(  19)  ---------------------------------------


    POTLOK:  cpu time      1.1325: real time      1.1665
    SETDIJ:  cpu time      0.0028: real time      0.0028
     EDDAV:  cpu time     12.9203: real time     13.3454
       DOS:  cpu time      0.0011: real time      0.0011
    CHARGE:  cpu time      4.0686: real time      4.2651
    MIXING:  cpu time      0.0348: real time      0.0352
    --------------------------------------------
      LOOP:  cpu time     18.1601: real time     18.8161

 eigenvalue-minimisations  :   768
 total energy-change (2. order) :-0.5089201E-03  (-0.1052903E-05)
 number of electron     550.0000064 magnetization 
 augmentation part      264.1407582 magnetization 

 Broyden mixing:
  rms(total) = 0.15377E-03    rms(broyden)= 0.15376E-03
  rms(prec ) = 0.20014E-03
  weight for this iteration     100.00

 eigenvalues of (default mixing * dielectric matrix)
  average eigenvalue GAMMA=   1.9836
  7.3956  4.3671  2.7984  2.5128  1.7200  1.4586  1.0113  1.0113  1.1261  0.6820
  1.0439  0.9082  0.9082  0.8262

 Free energy of the ion-electron system (eV)
  ---------------------------------------------------
  alpha Z        PSCENC =        31.54067343
  Ewald energy   TEWEN  =    245829.73528956
  -Hartree energ DENC   =   -295147.69603471
  -exchange      EXHF   =         0.00000000
  -V(xc)+E(xc)   XCENC  =      -566.95320106
  PAW double counting   =     53915.44900735   -51698.83465868
  entropy T*S    EENTRO =        -0.38698548
  eigenvalues    EBANDS =     -4334.93973242
  atomic energy  EATOM  =     51862.92141881
  Solvation  Ediel_sol  =         0.00000000
  ---------------------------------------------------
  free energy    TOTEN  =      -109.16422321 eV

  energy without entropy =     -108.77723773  energy(sigma->0) =     -108.97073047


--------------------------------------------------------------------------------------------------------




--------------------------------------- Iteration      1(  20)  ---------------------------------------


    POTLOK:  cpu time      1.1042: real time      1.2864
    SETDIJ:  cpu time      0.0036: real time      0.0037
     EDDAV:  cpu time     12.9069: real time     13.3879
       DOS:  cpu time      0.0005: real time      0.0005
    CHARGE:  cpu time      4.2683: real time      4.4289
    MIXING:  cpu time      0.0280: real time      0.0282
    --------------------------------------------
      LOOP:  cpu time     18.3115: real time     19.1355

 eigenvalue-minimisations  :   768
 total energy-change (2. order) :-0.2316861E-03  (-0.2831715E-06)
 number of electron     550.0000064 magnetization 
 augmentation part      264.1408194 magnetization 

 Broyden mixing:
  rms(total) = 0.96076E-04    rms(broyden)= 0.96075E-04
  rms(prec ) = 0.12033E-03
  weight for this iteration     100.00

 eigenvalues of (default mixing * dielectric matrix)
  average eigenvalue GAMMA=   2.0204
  7.6685  4.9152  2.9000  2.4433  2.3044  1.4386  1.3168  0.9935  0.9935  0.6821
  1.0704  0.9001  0.9001  0.9561  0.8236

 Free energy of the ion-electron system (eV)
  ---------------------------------------------------
  alpha Z        PSCENC =        31.54067343
  Ewald energy   TEWEN  =    245829.73528956
  -Hartree energ DENC   =   -295147.92299442
  -exchange      EXHF   =         0.00000000
  -V(xc)+E(xc)   XCENC  =      -566.95326381
  PAW double counting   =     53915.50964350   -51698.89171480
  entropy T*S    EENTRO =        -0.38698786
  eigenvalues    EBANDS =     -4334.71651931
  atomic energy  EATOM  =     51862.92141881
  Solvation  Ediel_sol  =         0.00000000
  ---------------------------------------------------
  free energy    TOTEN  =      -109.16445490 eV

  energy without entropy =     -108.77746704  energy(sigma->0) =     -108.97096097


--------------------------------------------------------------------------------------------------------




--------------------------------------- Iteration      1(  21)  ---------------------------------------


    POTLOK:  cpu time      1.2466: real time      1.2696
    SETDIJ:  cpu time      0.0028: real time      0.0028
     EDDAV:  cpu time     12.9631: real time     13.6035
       DOS:  cpu time      0.0011: real time      0.0011
    CHARGE:  cpu time      4.2830: real time      4.4637
    MIXING:  cpu time      0.0392: real time      0.0394
    --------------------------------------------
      LOOP:  cpu time     18.5358: real time     19.3802

 eigenvalue-minimisations  :   768
 total energy-change (2. order) :-0.1186561E-03  (-0.9206381E-08)
 number of electron     550.0000064 magnetization 
 augmentation part      264.1408363 magnetization 

 Broyden mixing:
  rms(total) = 0.50934E-04    rms(broyden)= 0.50934E-04
  rms(prec ) = 0.67180E-04
  weight for this iteration     100.00

 eigenvalues of (default mixing * dielectric matrix)
  average eigenvalue GAMMA=   2.0865
  7.9277  5.5526  3.2400  2.5992  2.4167  1.6147  1.6147  0.9922  0.9922  1.1335
  0.6821  1.0190  0.9134  0.9134  0.9413  0.8308

 Free energy of the ion-electron system (eV)
  ---------------------------------------------------
  alpha Z        PSCENC =        31.54067343
  Ewald energy   TEWEN  =    245829.73528956
  -Hartree energ DENC   =   -295148.01212356
  -exchange      EXHF   =         0.00000000
  -V(xc)+E(xc)   XCENC  =      -566.95345090
  PAW double counting   =     53915.36021387   -51698.74282994
  entropy T*S    EENTRO =        -0.38698998
  eigenvalues    EBANDS =     -4334.62677485
  atomic energy  EATOM  =     51862.92141881
  Solvation  Ediel_sol  =         0.00000000
  ---------------------------------------------------
  free energy    TOTEN  =      -109.16457355 eV

  energy without entropy =     -108.77758357  energy(sigma->0) =     -108.97107856


--------------------------------------------------------------------------------------------------------




--------------------------------------- Iteration      1(  22)  ---------------------------------------


    POTLOK:  cpu time      1.2023: real time      1.2370
    SETDIJ:  cpu time      0.0036: real time      0.0036
     EDDAV:  cpu time     12.7323: real time     13.3858
       DOS:  cpu time      0.0004: real time      0.0004
    --------------------------------------------
      LOOP:  cpu time     13.9386: real time     14.6268

 eigenvalue-minimisations  :   768
 total energy-change (2. order) :-0.7624392E-04  ( 0.5177580E-07)
 number of electron     550.0000064 magnetization 
 augmentation part      264.1408363 magnetization 

 Free energy of the ion-electron system (eV)
  ---------------------------------------------------
  alpha Z        PSCENC =        31.54067343
  Ewald energy   TEWEN  =    245829.73528956
  -Hartree energ DENC   =   -295148.07039565
  -exchange      EXHF   =         0.00000000
  -V(xc)+E(xc)   XCENC  =      -566.95352720
  PAW double counting   =     53915.26733531   -51698.64937668
  entropy T*S    EENTRO =        -0.38698985
  eigenvalues    EBANDS =     -4334.56907753
  atomic energy  EATOM  =     51862.92141881
  Solvation  Ediel_sol  =         0.00000000
  ---------------------------------------------------
  free energy    TOTEN  =      -109.16464980 eV

  energy without entropy =     -108.77765995  energy(sigma->0) =     -108.97115487


--------------------------------------------------------------------------------------------------------




 average (electrostatic) potential at core
  the test charge radii are     1.1249
  (the norm of the test charge is              1.0000)
       1 -83.0381       2 -83.0381       3 -83.0381       4 -83.1612       5 -83.1612
       6 -82.8827       7 -82.8948       8 -83.1418       9 -82.8827      10 -82.8948
      11 -82.8827      12 -82.8827      13 -83.1612      14 -82.8948      15 -82.8827
      16 -82.8827      17 -82.7089      18 -82.7089      19 -82.9022      20 -82.9022
      21 -82.7089      22 -82.7089      23 -82.9022      24 -82.7089      25 -82.7465
      26 -82.7465      27 -82.7465      28 -82.7465      29 -82.7465      30 -82.7023
      31 -82.9323      32 -82.7023      33 -82.7023      34 -82.7023      35 -82.7023
      36 -82.7089      37 -82.7023      38 -82.7465      39 -82.5810      40 -82.6533
      41 -82.8690      42 -82.8690      43 -82.8690      44 -82.5810      45 -82.6533
      46 -82.5810      47 -82.6533      48 -82.7207      49 -82.7207      50 -82.7207
 
 
 
 E-fermi :  -3.9323     XC(G=0):  -0.2810     alpha+bet : -0.1702

 Fermi energy:        -3.9323142612

 k-point     1 :       0.0000    0.0000    0.0000
  band No.  band energies     occupation 
      1     -10.4956      2.00000
      2      -9.9000      2.00000
      3      -9.7635      2.00000
      4      -9.7635      2.00000
      5      -9.7377      2.00000
      6      -9.7362      2.00000
      7      -9.7362      2.00000
      8      -9.6848      2.00000
      9      -9.6701      2.00000
     10      -9.6615      2.00000
     11      -9.6615      2.00000
     12      -9.6610      2.00000
     13      -9.5396      2.00000
     14      -9.5396      2.00000
     15      -9.4703      2.00000
     16      -9.4703      2.00000
     17      -9.4483      2.00000
     18      -9.4483      2.00000
     19      -9.4381      2.00000
     20      -9.3920      2.00000
     21      -9.3894      2.00000
     22      -9.3839      2.00000
     23      -9.3566      2.00000
     24      -9.3566      2.00000
     25      -9.3169      2.00000
     26      -9.3169      2.00000
     27      -9.3107      2.00000
     28      -9.2466      2.00000
     29      -9.2466      2.00000
     30      -9.2204      2.00000
     31      -9.2183      2.00000
     32      -9.2183      2.00000
     33      -9.1679      2.00000
     34      -9.1679      2.00000
     35      -9.1617      2.00000
     36      -9.1383      2.00000
     37      -9.1383      2.00000
     38      -9.0927      2.00000
     39      -9.0836      2.00000
     40      -9.0836      2.00000
     41      -9.0727      2.00000
     42      -9.0683      2.00000
     43      -9.0324      2.00000
     44      -9.0324      2.00000
     45      -9.0108      2.00000
     46      -9.0108      2.00000
     47      -8.9907      2.00000
     48      -8.9490      2.00000
     49      -8.9468      2.00000
     50      -8.9468      2.00000
     51      -8.9114      2.00000
     52      -8.8918      2.00000
     53      -8.8918      2.00000
     54      -8.8593      2.00000
     55      -8.8067      2.00000
     56      -8.8067      2.00000
     57      -8.8058      2.00000
     58      -8.7521      2.00000
     59      -8.7430      2.00000
     60      -8.7430      2.00000
     61      -8.6898      2.00000
     62      -8.6832      2.00000
     63      -8.6733      2.00000
     64      -8.6733      2.00000
     65      -8.6071      2.00000
     66      -8.6071      2.00000
     67      -8.6028      2.00000
     68      -8.5896      2.00000
     69      -8.5868      2.00000
     70      -8.5868      2.00000
     71      -8.5822      2.00000
     72      -8.5556      2.00000
[...]
    382       0.5770      0.00000
    383       0.5770      0.00000
    384       0.5880      0.00000


--------------------------------------------------------------------------------------------------------


 soft charge-density along one line, spin component           1
         0         1         2         3         4         5         6         7         8         9
 total charge-density along one line
 
 pseudopotential strength for first ion, spin component:           1
-10.758  -0.002   0.003  -0.000   0.000 -10.714  -0.002   0.003
 -0.002 -10.762  -0.000  -0.002   0.000  -0.002 -10.717  -0.000
  0.003  -0.000 -10.749  -0.002  -0.000   0.003  -0.000 -10.704
 -0.000  -0.002  -0.002 -10.758  -0.002  -0.000  -0.002  -0.002
  0.000   0.000  -0.000  -0.002 -10.748   0.000   0.000  -0.000
-10.714  -0.002   0.003  -0.000   0.000 -10.646  -0.002   0.003
 -0.002 -10.717  -0.000  -0.002   0.000  -0.002 -10.649  -0.000
  0.003  -0.000 -10.704  -0.002  -0.000   0.003  -0.000 -10.637
 -0.000  -0.002  -0.002 -10.714  -0.002  -0.000  -0.002  -0.002
  0.000   0.000  -0.000  -0.002 -10.704   0.000   0.000  -0.000
  0.001   0.000   0.000   0.001  -0.001   0.001   0.000   0.000
  0.002   0.000   0.001   0.002  -0.001   0.002   0.000   0.001
 -0.001   0.001  -0.001  -0.000  -0.001  -0.001   0.001  -0.001
 -0.000   0.001   0.001  -0.001  -0.000  -0.000   0.001   0.001
  0.001  -0.000   0.001   0.001  -0.001   0.001  -0.000   0.001
 -0.001   0.001  -0.001  -0.000  -0.001  -0.001   0.001  -0.001
 -0.000   0.001   0.002  -0.001  -0.000  -0.000   0.001   0.002
  0.001  -0.000   0.001   0.001  -0.001   0.001  -0.000   0.001
 total augmentation occupancy for first ion, spin component:           1
  3.559  -0.022   0.070  -0.015   0.020  -1.583   0.020  -0.054   0.015  -0.015  -0.057  -0.002   0.001  -0.007  -0.017  -0.001
 -0.022   3.386  -0.005  -0.022   0.009   0.020  -1.441   0.003   0.020  -0.005  -0.007  -0.004  -0.005  -0.005  -0.001   0.001
  0.070  -0.005   3.521  -0.052   0.027  -0.054   0.003  -1.409   0.040  -0.021  -0.019  -0.002   0.005   0.001   0.009  -0.001
 -0.015  -0.022  -0.052   3.559  -0.050   0.015   0.020   0.040  -1.583   0.039  -0.057  -0.002  -0.007   0.001  -0.017   0.000
  0.020   0.009   0.027  -0.050   3.490  -0.015  -0.005  -0.021   0.039  -1.385   0.033   0.004  -0.004  -0.006  -0.015  -0.001
 -1.583   0.020  -0.054   0.015  -0.015   1.553  -0.018   0.041  -0.013   0.011   0.040   0.007   0.002   0.006   0.012   0.000
  0.020  -1.441   0.003   0.020  -0.005  -0.018   1.437  -0.001  -0.018   0.002   0.007   0.003   0.002   0.002   0.001  -0.000
 -0.054   0.003  -1.409   0.040  -0.021   0.041  -0.001   1.269  -0.030   0.016   0.013   0.003  -0.004  -0.001  -0.008   0.000
  0.015   0.020   0.040  -1.583   0.039  -0.013  -0.018  -0.030   1.553  -0.030   0.040   0.007   0.006   0.002   0.012  -0.000
 -0.015  -0.005  -0.021   0.039  -1.385   0.011   0.002   0.016  -0.030   1.250  -0.023  -0.005   0.004   0.005   0.014  -0.000
 -0.057  -0.007  -0.019  -0.057   0.033   0.040   0.007   0.013   0.040  -0.023   2.165  -0.410  -0.006  -0.006   0.006   0.000
 -0.002  -0.004  -0.002  -0.002   0.004   0.007   0.003   0.003   0.007  -0.005  -0.410   0.098  -0.001  -0.001  -0.001   0.000
  0.001  -0.005   0.005  -0.007  -0.004   0.002   0.002  -0.004   0.006   0.004  -0.006  -0.001   0.162   0.002   0.001  -0.010
 -0.007  -0.005   0.001   0.001  -0.006   0.006   0.002  -0.001   0.002   0.005  -0.006  -0.001   0.002   0.162   0.001  -0.000
 -0.017  -0.001   0.009  -0.017  -0.015   0.012   0.001  -0.008   0.012   0.014   0.006  -0.001   0.001   0.001   0.161  -0.000
 -0.001   0.001  -0.001   0.000  -0.001   0.000  -0.000   0.000  -0.000  -0.000   0.000   0.000  -0.010  -0.000  -0.000   0.001
  0.000   0.001   0.001  -0.001   0.000  -0.000  -0.000  -0.000   0.000  -0.000   0.000   0.000  -0.000  -0.010  -0.000   0.000
  0.001  -0.000   0.000   0.001  -0.000  -0.000  -0.000   0.000  -0.000  -0.000  -0.001   0.000  -0.000  -0.000  -0.010   0.000


------------------------ aborting loop because EDIFF is reached ----------------------------------------


    CHARGE:  cpu time      4.2974: real time      4.3237
    FORLOC:  cpu time      0.1339: real time      0.1346
    FORNL :  cpu time      3.3402: real time      3.5470
    STRESS:  cpu time      9.6704: real time     10.1200
    FORCOR:  cpu time      0.9904: real time      0.9999
    FORHAR:  cpu time      0.3425: real time      0.3453
    MIXING:  cpu time      0.0252: real time      0.0255
    OFIELD:  cpu time      0.0001: real time      0.0002

  FORCE on cell =-STRESS in cart. coord.  units (eV):
  Direction    XX          YY          ZZ          XY          YZ          ZX
  --------------------------------------------------------------------------------------
  Alpha Z    31.54067    31.54067    31.54067
  Ewald   81943.21799 81943.21799 81943.21799 13485.86538 13485.86538 13485.86538
  Hartree 98382.71632 98382.71632 98382.71632 12743.96826 12743.96826 12743.96826
  E(xc)   -2898.28948 -2898.28948 -2898.28948     1.17900     1.17900     1.17900
  Local  ************************************-26223.48037-26223.48037-26223.48037
  n-local  -517.13270  -517.13270  -517.13270    -0.12323    -0.12323    -0.12323
  augment  4599.07681  4599.07681  4599.07681    -2.32095    -2.32095    -2.32095
  Kinetic  6834.53838  6834.53838  6834.53838    -7.07867    -7.07867    -7.07867
  Fock        0.00000     0.00000     0.00000     0.00000     0.00000     0.00000
  -------------------------------------------------------------------------------------
  Total     -12.87783   -12.87783   -12.87783    -1.99058    -1.99058    -1.99058
  in kB      -0.30603    -0.30603    -0.30603    -0.04731    -0.04731    -0.04731
  external pressure =       -0.31 kB  Pullay stress =        0.00 kB


 VOLUME and BASIS-vectors are now :
 -----------------------------------------------------------------------------
  energy-cutoff  :      400.00
  volume of cell :    67419.14
      direct lattice vectors                 reciprocal lattice vectors
    40.700000000  0.000000000  0.000000000     0.024570025  0.000000000  0.000000000
     0.000000000 40.700000000  0.000000000     0.000000000  0.024570025  0.000000000
     0.000000000  0.000000000 40.700000000     0.000000000  0.000000000  0.024570025

  length of vectors
    40.700000000 40.700000000 40.700000000     0.024570025  0.024570025  0.024570025


 FORCES acting on ions
    electron-ion (+dipol)            ewald-force                    non-local-force                 convergence-correction
 -----------------------------------------------------------------------------------------------
   0.626E+03 -.297E+03 -.297E+03   -.626E+03 0.296E+03 0.296E+03   -.118E+00 0.347E+00 0.347E+00   0.154E-04 -.700E-04 -.700E-04
   -.297E+03 -.297E+03 0.626E+03   0.296E+03 0.296E+03 -.626E+03   0.347E+00 0.347E+00 -.118E+00   -.700E-04 -.700E-04 0.154E-04
   -.297E+03 0.626E+03 -.297E+03   0.296E+03 -.626E+03 0.296E+03   0.347E+00 -.118E+00 0.347E+00   -.700E-04 0.154E-04 -.700E-04
   -.143E+03 -.106E+04 -.143E+03   0.143E+03 0.105E+04 0.143E+03   0.271E+00 0.150E+01 0.271E+00   -.895E-05 -.305E-03 -.895E-05
   -.143E+03 -.143E+03 -.106E+04   0.143E+03 0.143E+03 0.105E+04   0.271E+00 0.271E+00 0.150E+01   -.895E-05 -.895E-05 -.305E-03
   0.136E+04 -.673E+03 0.616E+03   -.136E+04 0.672E+03 -.616E+03   -.186E+01 0.684E+00 -.316E+00   0.269E-03 -.262E-03 0.200E-03
   0.780E+03 -.128E+04 0.780E+03   -.779E+03 0.128E+04 -.779E+03   -.713E+00 0.774E+00 -.713E+00   0.159E-03 -.180E-03 0.159E-03
   0.400E+03 0.400E+03 0.400E+03   -.399E+03 -.399E+03 -.399E+03   -.155E+00 -.155E+00 -.155E+00   -.481E-04 -.481E-04 -.481E-04
   0.136E+04 0.616E+03 -.673E+03   -.136E+04 -.616E+03 0.672E+03   -.186E+01 -.316E+00 0.684E+00   0.269E-03 0.200E-03 -.262E-03
   0.780E+03 0.780E+03 -.128E+04   -.779E+03 -.779E+03 0.128E+04   -.713E+00 -.713E+00 0.774E+00   0.159E-03 0.159E-03 -.180E-03
   0.616E+03 -.673E+03 0.136E+04   -.616E+03 0.672E+03 -.136E+04   -.316E+00 0.684E+00 -.186E+01   0.200E-03 -.262E-03 0.269E-03
   0.616E+03 0.136E+04 -.673E+03   -.616E+03 -.136E+04 0.672E+03   -.316E+00 -.186E+01 0.684E+00   0.200E-03 0.269E-03 -.262E-03
   -.106E+04 -.143E+03 -.143E+03   0.105E+04 0.143E+03 0.143E+03   0.150E+01 0.271E+00 0.271E+00   -.305E-03 -.895E-05 -.895E-05
   -.128E+04 0.780E+03 0.780E+03   0.128E+04 -.779E+03 -.779E+03   0.774E+00 -.713E+00 -.713E+00   -.180E-03 0.159E-03 0.159E-03
   -.673E+03 0.616E+03 0.136E+04   0.672E+03 -.616E+03 -.136E+04   0.684E+00 -.316E+00 -.186E+01   -.262E-03 0.200E-03 0.269E-03
   -.673E+03 0.136E+04 0.616E+03   0.672E+03 -.136E+04 -.616E+03   0.684E+00 -.186E+01 -.316E+00   -.262E-03 0.269E-03 0.200E-03
   0.143E+04 -.122E+04 -.184E+03   -.143E+04 0.122E+04 0.184E+03   -.255E+01 0.145E+01 -.559E-01   0.258E-03 -.254E-03 -.892E-04
   0.143E+04 -.184E+03 -.122E+04   -.143E+04 0.184E+03 0.122E+04   -.255E+01 -.559E-01 0.145E+01   0.258E-03 -.892E-04 -.254E-03
   0.814E+03 -.109E+04 -.109E+04   -.813E+03 0.109E+04 0.109E+04   -.492E+00 0.849E+00 0.849E+00   0.178E-03 -.244E-03 -.244E-03
   -.109E+04 -.109E+04 0.814E+03   0.109E+04 0.109E+04 -.813E+03   0.849E+00 0.849E+00 -.492E+00   -.244E-03 -.244E-03 0.178E-03
   -.184E+03 -.122E+04 0.143E+04   0.184E+03 0.122E+04 -.143E+04   -.559E-01 0.145E+01 -.255E+01   -.892E-04 -.254E-03 0.258E-03
   -.122E+04 0.143E+04 -.184E+03   0.122E+04 -.143E+04 0.184E+03   0.145E+01 -.255E+01 -.559E-01   -.254E-03 0.258E-03 -.892E-04
   -.109E+04 0.814E+03 -.109E+04   0.109E+04 -.813E+03 0.109E+04   0.849E+00 -.492E+00 0.849E+00   -.244E-03 0.178E-03 -.244E-03
   -.184E+03 0.143E+04 -.122E+04   0.184E+03 -.143E+04 0.122E+04   -.559E-01 -.255E+01 0.145E+01   -.892E-04 0.258E-03 -.254E-03
   0.741E+03 -.178E+04 -.993E+02   -.739E+03 0.178E+04 0.992E+02   -.169E+01 0.400E+01 0.108E+00   0.185E-03 -.146E-03 -.135E-03
   -.993E+02 -.178E+04 0.741E+03   0.992E+02 0.178E+04 -.739E+03   0.108E+00 0.400E+01 -.169E+01   -.135E-03 -.146E-03 0.185E-03
   -.178E+04 0.741E+03 -.993E+02   0.178E+04 -.739E+03 0.992E+02   0.400E+01 -.169E+01 0.108E+00   -.146E-03 0.185E-03 -.135E-03
   0.741E+03 -.993E+02 -.178E+04   -.739E+03 0.992E+02 0.178E+04   -.169E+01 0.108E+00 0.400E+01   0.185E-03 -.135E-03 -.146E-03
   -.993E+02 0.741E+03 -.178E+04   0.992E+02 -.739E+03 0.178E+04   0.108E+00 -.169E+01 0.400E+01   -.135E-03 0.185E-03 -.146E-03
   -.904E+03 -.169E+04 -.700E+02   0.902E+03 0.169E+04 0.697E+02   0.177E+01 0.362E+01 0.250E+00   -.238E-03 -.190E-03 0.753E-05
   -.102E+04 -.102E+04 -.102E+04   0.101E+04 0.101E+04 0.101E+04   0.875E+00 0.875E+00 0.875E+00   -.143E-03 -.143E-03 -.143E-03
   -.700E+02 -.169E+04 -.904E+03   0.697E+02 0.169E+04 0.902E+03   0.250E+00 0.362E+01 0.177E+01   0.753E-05 -.190E-03 -.238E-03
   -.904E+03 -.700E+02 -.169E+04   0.902E+03 0.697E+02 0.169E+04   0.177E+01 0.250E+00 0.362E+01   -.238E-03 0.753E-05 -.190E-03
   -.700E+02 -.904E+03 -.169E+04   0.697E+02 0.902E+03 0.169E+04   0.250E+00 0.177E+01 0.362E+01   0.753E-05 -.238E-03 -.190E-03
   -.169E+04 -.700E+02 -.904E+03   0.169E+04 0.697E+02 0.902E+03   0.362E+01 0.250E+00 0.177E+01   -.190E-03 0.753E-05 -.238E-03
   -.122E+04 -.184E+03 0.143E+04   0.122E+04 0.184E+03 -.143E+04   0.145E+01 -.559E-01 -.255E+01   -.254E-03 -.892E-04 0.258E-03
   -.169E+04 -.904E+03 -.700E+02   0.169E+04 0.902E+03 0.697E+02   0.362E+01 0.177E+01 0.250E+00   -.190E-03 -.238E-03 0.753E-05
   -.178E+04 -.993E+02 0.741E+03   0.178E+04 0.992E+02 -.739E+03   0.400E+01 0.108E+00 -.169E+01   -.146E-03 -.135E-03 0.185E-03
   0.179E+04 -.373E+03 -.373E+03   -.179E+04 0.371E+03 0.371E+03   -.415E+01 0.173E+01 0.173E+01   0.311E-03 -.169E-03 -.169E-03
   0.178E+04 0.151E+03 0.151E+03   -.178E+04 -.151E+03 -.151E+03   -.338E+01 -.454E-01 -.454E-01   0.338E-03 0.301E-04 0.301E-04
   0.112E+04 -.104E+03 0.112E+04   -.112E+04 0.104E+03 -.112E+04   -.134E+01 -.154E+00 -.134E+01   0.329E-03 -.100E-03 0.329E-03
   0.112E+04 0.112E+04 -.104E+03   -.112E+04 -.112E+04 0.104E+03   -.134E+01 -.134E+01 -.154E+00   0.329E-03 0.329E-03 -.100E-03
   -.104E+03 0.112E+04 0.112E+04   0.104E+03 -.112E+04 -.112E+04   -.154E+00 -.134E+01 -.134E+01   -.100E-03 0.329E-03 0.329E-03
   -.373E+03 -.373E+03 0.179E+04   0.371E+03 0.371E+03 -.179E+04   0.173E+01 0.173E+01 -.415E+01   -.169E-03 -.169E-03 0.311E-03
   0.151E+03 0.151E+03 0.178E+04   -.151E+03 -.151E+03 -.178E+04   -.454E-01 -.454E-01 -.338E+01   0.301E-04 0.301E-04 0.338E-03
   -.373E+03 0.179E+04 -.373E+03   0.371E+03 -.179E+04 0.371E+03   0.173E+01 -.415E+01 0.173E+01   -.169E-03 0.311E-03 -.169E-03
   0.151E+03 0.178E+04 0.151E+03   -.151E+03 -.178E+04 -.151E+03   -.454E-01 -.338E+01 -.454E-01   0.301E-04 0.338E-03 0.301E-04
   0.148E+04 0.623E+03 0.623E+03   -.148E+04 -.621E+03 -.621E+03   -.436E+01 -.142E+01 -.142E+01   0.173E-03 0.420E-04 0.420E-04
   0.623E+03 0.623E+03 0.148E+04   -.621E+03 -.621E+03 -.148E+04   -.142E+01 -.142E+01 -.436E+01   0.420E-04 0.420E-04 0.173E-03
   0.623E+03 0.148E+04 0.623E+03   -.621E+03 -.148E+04 -.621E+03   -.142E+01 -.436E+01 -.142E+01   0.420E-04 0.173E-03 0.420E-04
 -----------------------------------------------------------------------------------------------
   -.523E+00 -.523E+00 -.523E+00   0.239E-11 0.682E-12 0.796E-12   0.520E+00 0.520E+00 0.520E+00   -.412E-03 -.412E-03 -.412E-03
 
 
 POSITION                                       TOTAL-FORCE (eV/Angst)
 -----------------------------------------------------------------------------------
     19.32500     21.37500     21.37500         0.060239      0.022262      0.022262
     21.37500     21.37500     19.32500         0.022262      0.022262      0.060239
     21.37500     19.32500     21.37500         0.022262      0.060239      0.022262
     21.37500     23.42500     21.37500         0.011113      0.233365      0.011113
     21.37500     21.37500     23.42500         0.011113      0.011113      0.233365
     17.27500     21.37500     19.32500        -0.092849      0.045936     -0.093706
     19.32500     23.42500     19.32500        -0.072059      0.073943     -0.072059
     19.32500     19.32500     19.32500         0.083300      0.083300      0.083300
     17.27500     19.32500     21.37500        -0.092849     -0.093706      0.045936
     19.32500     19.32500     23.42500        -0.072059     -0.072059      0.073943
     19.32500     21.37500     17.27500        -0.093706      0.045936     -0.092849
     19.32500     17.27500     21.37500        -0.093706     -0.092849      0.045936
     23.42500     21.37500     21.37500         0.233365      0.011113      0.011113
     23.42500     19.32500     19.32500         0.073943     -0.072059     -0.072059
     21.37500     19.32500     17.27500         0.045936     -0.093706     -0.092849
     21.37500     17.27500     19.32500         0.045936     -0.092849     -0.093706
     17.27500     23.42500     21.37500         0.126631     -0.060191      0.032604
     17.27500     21.37500     23.42500         0.126631      0.032604     -0.060191
     19.32500     23.42500     23.42500        -0.148790      0.125331      0.125331
     23.42500     23.42500     19.32500         0.125331      0.125331     -0.148790
     21.37500     23.42500     17.27500         0.032604     -0.060191      0.126631
     23.42500     17.27500     21.37500        -0.060191      0.126631      0.032604
     23.42500     19.32500     23.42500         0.125331     -0.148790      0.125331
     21.37500     17.27500     23.42500         0.032604      0.126631     -0.060191
     19.32500     25.47500     21.37500         0.119156     -0.348628      0.007320
     21.37500     25.47500     19.32500         0.007320     -0.348628      0.119156
     25.47500     19.32500     21.37500        -0.348628      0.119156      0.007320
     19.32500     21.37500     25.47500         0.119156      0.007320     -0.348628
     21.37500     19.32500     25.47500         0.007320      0.119156     -0.348628
     23.42500     25.47500     21.37500        -0.141349     -0.244938     -0.025518
     23.42500     23.42500     23.42500         0.130012      0.130012      0.130012
     21.37500     25.47500     23.42500        -0.025518     -0.244938     -0.141349
     23.42500     21.37500     25.47500        -0.141349     -0.025518     -0.244938
     21.37500     23.42500     25.47500        -0.025518     -0.141349     -0.244938
     25.47500     21.37500     23.42500        -0.244938     -0.025518     -0.141349
     23.42500     21.37500     17.27500        -0.060191      0.032604      0.126631
     25.47500     23.42500     21.37500        -0.244938     -0.141349     -0.025518
     25.47500     21.37500     19.32500        -0.348628      0.007320      0.119156
     15.22500     21.37500     21.37500         0.293412     -0.160949     -0.160949
     15.22500     19.32500     19.32500         0.231337      0.049279      0.049279
     17.27500     19.32500     17.27500        -0.158348      0.053632     -0.158348
     17.27500     17.27500     19.32500        -0.158348     -0.158348      0.053632
     19.32500     17.27500     17.27500         0.053632     -0.158348     -0.158348
     21.37500     21.37500     15.22500        -0.160949     -0.160949      0.293412
     19.32500     19.32500     15.22500         0.049279      0.049279      0.231337
     21.37500     15.22500     21.37500        -0.160949      0.293412     -0.160949
     19.32500     15.22500     19.32500         0.049279      0.231337      0.049279
     15.22500     17.27500     17.27500         0.422805      0.142277      0.142277
     17.27500     17.27500     15.22500         0.142277      0.142277      0.422805
     17.27500     15.22500     17.27500         0.142277      0.422805      0.142277
 -----------------------------------------------------------------------------------
    total drift:                               -0.002795     -0.002795     -0.002808


--------------------------------------------------------------------------------------------------------



  FREE ENERGIE OF THE ION-ELECTRON SYSTEM (eV)
  ---------------------------------------------------
  free  energy   TOTEN  =      -109.16464980 eV

  energy  without entropy=     -108.77765995  energy(sigma->0) =     -108.97115487
 


--------------------------------------------------------------------------------------------------------


    POTLOK:  cpu time      1.1194: real time      1.2779


--------------------------------------------------------------------------------------------------------


 stress matrix after NEB project (eV)
    -12.87783     -1.99058     -1.99058
     -1.99058    -12.87783     -1.99058
     -1.99058     -1.99058    -12.87783
  FORCES: max atom, RMS     0.468241    0.260894
  FORCE total and by dimension    1.844799    0.422805
  Stress total and by dimension   22.831768   12.877825
     LOOP+:  cpu time    435.4950: real time    448.6361
    4ORBIT:  cpu time      0.0000: real time      0.0000

 total amount of memory used by VASP MPI-rank0  1114803. kBytes
=======================================================================

   base      :      30000. kBytes
   nonlr-proj:      35253. kBytes
   fftplans  :     137265. kBytes
   grid      :     872674. kBytes
   one-center:        388. kBytes
   wavefun   :      39223. kBytes
 
  
  
 General timing and accounting informations for this job:
 ========================================================
  
                  Total CPU time used (sec):      467.986
                            User time (sec):      451.935
                          System time (sec):       16.051
                         Elapsed time (sec):      482.773
  
                   Maximum memory used (kb):     2812276.
                   Average memory used (kb):          N/A
  
                          Minor page faults:       950404
                          Major page faults:           68
                 Voluntary context switches:         8120
