 running on   96 total cores
 distrk:  each k-point on   96 cores,    1 groups
 distr:  one band on    1 cores,   96 groups
 vasp.6.3.0 20Jan22 (build Jul 12 2024 16:06:18) gamma-only                     
  
 POSCAR found :  1 types and      50 ions
 scaLAPACK is switched off
 -----------------------------------------------------------------------------
|                                                                             |
|           W    W    AA    RRRRR   N    N  II  N    N   GGGG   !!!           |
|           W    W   A  A   R    R  NN   N  II  NN   N  G    G  !!!           |
|           W    W  A    A  R    R  N N  N  II  N N  N  G       !!!           |
|           W WW W  AAAAAA  RRRRR   N  N N  II  N  N N  G  GGG   !            |
|           WW  WW  A    A  R   R   N   NN  II  N   NN  G    G                |
|           W    W  A    A  R    R  N    N  II  N    N   GGGG   !!!           |
|                                                                             |
|     For optimal performance we recommend to set                             |
|       NCORE = 2 up to number-of-cores-per-socket                            |
|     NCORE specifies how many cores store one orbital (NPAR=cpu/NCORE).      |
|     This setting can greatly improve the performance of VASP for DFT.       |
|     The default, NCORE=1 might be grossly inefficient on modern             |
|     multi-core architectures or massively parallel machines. Do your        |
|     own testing! More info at https://www.vasp.at/wiki/index.php/NCORE      |
|     Unfortunately you need to use the default for GW and RPA                |
|     calculations (for HF NCORE is supported but not extensively tested      |
|     yet).                                                                   |
|                                                                             |
 -----------------------------------------------------------------------------

 LDA part: xc-table for Pade appr. of Perdew
 POSCAR found :  1 types and      50 ions
 POSCAR, INCAR and KPOINTS ok, starting setup
 FFT: planning ... GRIDC
 FFT: planning ... GRID_SOFT
 FFT: planning ... GRID
 WAVECAR not read
 entering main loop
       N       E                     dE             d eps       ncg     rms          rms(c)
DAV:   1     0.497647539305E+04    0.49765E+04   -0.84551E+04   768   0.652E+02
DAV:   2     0.244080259553E+04   -0.25357E+04   -0.23139E+04  1536   0.700E+01
DAV:   3     0.244320561452E+03   -0.21965E+04   -0.20953E+04  1344   0.784E+01
DAV:   4    -0.105534364331E+03   -0.34985E+03   -0.31203E+03  1056   0.422E+01
DAV:   5    -0.117626639979E+03   -0.12092E+02   -0.11887E+02   768   0.985E+00    0.253E+01
DAV:   6    -0.109671281439E+03    0.79554E+01   -0.31124E+01   960   0.103E+01    0.167E+01
DAV:   7    -0.109238762339E+03    0.43252E+00   -0.14516E+00   960   0.194E+00    0.859E+00
DAV:   8    -0.109159551035E+03    0.79211E-01   -0.25926E-01  1056   0.162E+00    0.952E-01
DAV:   9    -0.109151228963E+03    0.83221E-02   -0.10664E-01   960   0.125E+00    0.308E-01
DAV:  10    -0.109150393236E+03    0.83573E-03   -0.19322E-02  1056   0.374E-01    0.156E-01
DAV:  11    -0.109151012450E+03   -0.61921E-03   -0.27015E-03  1056   0.136E-01    0.950E-02
DAV:  12    -0.109152833396E+03   -0.18209E-02   -0.11898E-03  1152   0.481E-02    0.525E-02
DAV:  13    -0.109155101969E+03   -0.22686E-02   -0.51491E-04   768   0.393E-02    0.351E-02
DAV:  14    -0.109158351008E+03   -0.32490E-02   -0.41269E-04   768   0.431E-02    0.262E-02
DAV:  15    -0.109160171740E+03   -0.18207E-02   -0.14199E-04   672   0.148E-02    0.129E-02
DAV:  16    -0.109161986582E+03   -0.18148E-02   -0.13992E-04   768   0.156E-02    0.864E-03
DAV:  17    -0.109162973769E+03   -0.98719E-03   -0.32525E-05   576   0.114E-02    0.484E-03
DAV:  18    -0.109163714290E+03   -0.74052E-03   -0.18368E-05   768   0.300E-03    0.276E-03
DAV:  19    -0.109164223211E+03   -0.50892E-03   -0.10529E-05   768   0.258E-03    0.154E-03
DAV:  20    -0.109164454897E+03   -0.23169E-03   -0.28317E-06   768   0.141E-03    0.961E-04
DAV:  21    -0.109164573553E+03   -0.11866E-03   -0.92064E-08   768   0.716E-04    0.509E-04
DAV:  22    -0.109164649797E+03   -0.76244E-04    0.51776E-07   768   0.522E-04
   1 F= -.10916465E+03 E0= -.10897115E+03  d E =-.386990E+00
