  50  50   0   0
  0.1348383E+04  0.4070000E-08  0.4070000E-08  0.4070000E-08  0.5000000E-15
  1.000000000000000E-004
  CAR 
 unknown system                          
      2.60505051    -12.49551625  301     -3.93219723      1.00000000
    -12.496  0.0000E+00  0.0000E+00
    -12.445  0.0000E+00  0.0000E+00
    -12.395  0.0000E+00  0.0000E+00
    -12.345  0.0000E+00  0.0000E+00
    -12.294  0.0000E+00  0.0000E+00
    -12.244  0.0000E+00  0.0000E+00
    -12.194  0.0000E+00  0.0000E+00
    -12.143  0.0000E+00  0.0000E+00
    -12.093  0.0000E+00  0.0000E+00
    -12.042  0.0000E+00  0.0000E+00
    -11.992  0.0000E+00  0.0000E+00
    -11.942  0.0000E+00  0.0000E+00
    -11.891  0.0000E+00  0.0000E+00
    -11.841  0.0000E+00  0.0000E+00
    -11.791  0.0000E+00  0.0000E+00
    -11.740  0.0000E+00  0.0000E+00
    -11.690  0.0000E+00  0.0000E+00
    -11.640  0.1103E-13  0.5551E-15
    -11.589  0.1941E-12  0.1033E-13
    -11.539  0.2949E-11  0.1588E-12
    -11.489  0.3978E-10  0.2161E-11
    -11.438  0.4732E-09  0.2598E-10
    -11.388  0.4963E-08  0.2758E-09
    -11.338  0.4591E-07  0.2587E-08
    -11.287  0.3745E-06  0.2144E-07
    -11.237  0.2695E-05  0.1571E-06
    -11.187  0.1710E-04  0.1018E-05
    -11.136  0.9575E-04  0.5837E-05
    -11.086  0.4727E-03  0.2963E-04
    -11.036  0.2059E-02  0.1333E-03
    -10.985  0.7909E-02  0.5314E-03
    -10.935  0.2680E-01  0.1880E-02
    -10.885  0.8011E-01  0.5913E-02
    -10.834  0.2112E+00  0.1655E-01
    -10.784  0.4914E+00  0.4128E-01
    -10.734  0.1008E+01  0.9203E-01
    -10.683  0.1825E+01  0.1839E+00
    -10.633  0.2914E+01  0.3306E+00
    -10.583  0.4105E+01  0.5372E+00
    -10.532  0.5102E+01  0.7940E+00
    -10.482  0.5594E+01  0.1076E+01
    -10.432  0.5412E+01  0.1348E+01
    -10.381  0.4626E+01  0.1581E+01
    -10.331  0.3510E+01  0.1758E+01
    -10.281  0.2416E+01  0.1879E+01
    -10.230  0.1651E+01  0.1962E+01
    -10.180  0.1443E+01  0.2035E+01
    -10.130  0.1997E+01  0.2135E+01
    -10.079  0.3597E+01  0.2316E+01
    -10.029  0.6653E+01  0.2651E+01
     -9.979  0.1166E+02  0.3238E+01
     -9.928  0.1904E+02  0.4197E+01
     -9.878  0.2879E+02  0.5646E+01
     -9.828  0.4027E+02  0.7673E+01
     -9.777  0.5209E+02  0.1030E+02
     -9.727  0.6259E+02  0.1345E+02
     -9.677  0.7062E+02  0.1700E+02
     -9.626  0.7620E+02  0.2084E+02
     -9.576  0.8049E+02  0.2489E+02
     -9.526  0.8500E+02  0.2917E+02
     -9.475  0.9062E+02  0.3373E+02
     -9.425  0.9721E+02  0.3862E+02
     -9.375  0.1040E+03  0.4385E+02
     -9.324  0.1102E+03  0.4940E+02
     -9.274  0.1155E+03  0.5521E+02
     -9.224  0.1199E+03  0.6125E+02
     -9.173  0.1236E+03  0.6747E+02
     -9.123  0.1260E+03  0.7381E+02
     -9.073  0.1268E+03  0.8019E+02
     -9.022  0.1254E+03  0.8650E+02
     -8.972  0.1221E+03  0.9265E+02
     -8.922  0.1178E+03  0.9858E+02
     -8.871  0.1142E+03  0.1043E+03
     -8.821  0.1129E+03  0.1100E+03
     -8.771  0.1154E+03  0.1158E+03
     -8.720  0.1226E+03  0.1220E+03
     -8.670  0.1343E+03  0.1287E+03
     -8.620  0.1493E+03  0.1363E+03
     -8.569  0.1658E+03  0.1446E+03
     -8.519  0.1815E+03  0.1537E+03
     -8.469  0.1946E+03  0.1635E+03
     -8.418  0.2038E+03  0.1738E+03
     -8.368  0.2088E+03  0.1843E+03
     -8.318  0.2104E+03  0.1949E+03
     -8.267  0.2098E+03  0.2055E+03
     -8.217  0.2080E+03  0.2159E+03
     -8.167  0.2056E+03  0.2263E+03
     -8.116  0.2020E+03  0.2365E+03
     -8.066  0.1967E+03  0.2464E+03
     -8.016  0.1895E+03  0.2559E+03
     -7.965  0.1811E+03  0.2650E+03
     -7.915  0.1735E+03  0.2737E+03
     -7.865  0.1687E+03  0.2822E+03
     -7.814  0.1678E+03  0.2907E+03
     -7.764  0.1709E+03  0.2993E+03
     -7.714  0.1767E+03  0.3082E+03
     -7.663  0.1841E+03  0.3174E+03
     -7.613  0.1917E+03  0.3271E+03
     -7.563  0.1988E+03  0.3371E+03
     -7.512  0.2050E+03  0.3474E+03
     -7.462  0.2102E+03  0.3580E+03
     -7.412  0.2147E+03  0.3688E+03
     -7.361  0.2194E+03  0.3799E+03
     -7.311  0.2252E+03  0.3912E+03
     -7.261  0.2324E+03  0.4029E+03
     -7.210  0.2401E+03  0.4150E+03
     -7.160  0.2464E+03  0.4274E+03
     -7.110  0.2489E+03  0.4399E+03
     -7.059  0.2457E+03  0.4523E+03
     -7.009  0.2355E+03  0.4641E+03
     -6.959  0.2183E+03  0.4751E+03
     -6.908  0.1949E+03  0.4849E+03
     -6.858  0.1664E+03  0.4933E+03
     -6.808  0.1349E+03  0.5001E+03
     -6.757  0.1028E+03  0.5053E+03
     -6.707  0.7318E+02  0.5089E+03
     -6.657  0.4875E+02  0.5114E+03
     -6.606  0.3127E+02  0.5130E+03
     -6.556  0.2095E+02  0.5140E+03
     -6.506  0.1659E+02  0.5149E+03
     -6.455  0.1604E+02  0.5157E+03
     -6.405  0.1696E+02  0.5165E+03
     -6.355  0.1755E+02  0.5174E+03
     -6.304  0.1693E+02  0.5183E+03
     -6.254  0.1526E+02  0.5190E+03
     -6.204  0.1335E+02  0.5197E+03
     -6.153  0.1210E+02  0.5203E+03
     -6.103  0.1197E+02  0.5209E+03
     -6.053  0.1285E+02  0.5216E+03
     -6.002  0.1412E+02  0.5223E+03
     -5.952  0.1503E+02  0.5230E+03
     -5.902  0.1494E+02  0.5238E+03
     -5.851  0.1365E+02  0.5245E+03
     -5.801  0.1146E+02  0.5250E+03
     -5.751  0.9037E+01  0.5255E+03
     -5.700  0.7183E+01  0.5259E+03
     -5.650  0.6523E+01  0.5262E+03
     -5.600  0.7303E+01  0.5266E+03
     -5.549  0.9317E+01  0.5270E+03
     -5.499  0.1196E+02  0.5276E+03
     -5.449  0.1440E+02  0.5283E+03
     -5.398  0.1585E+02  0.5291E+03
     -5.348  0.1587E+02  0.5299E+03
     -5.298  0.1460E+02  0.5307E+03
     -5.247  0.1267E+02  0.5313E+03
     -5.197  0.1093E+02  0.5319E+03
     -5.147  0.1004E+02  0.5324E+03
     -5.096  0.1026E+02  0.5329E+03
     -5.046  0.1139E+02  0.5335E+03
     -4.996  0.1302E+02  0.5341E+03
     -4.945  0.1470E+02  0.5349E+03
     -4.895  0.1607E+02  0.5357E+03
     -4.845  0.1681E+02  0.5365E+03
     -4.794  0.1666E+02  0.5374E+03
     -4.744  0.1554E+02  0.5381E+03
     -4.694  0.1361E+02  0.5388E+03
     -4.643  0.1137E+02  0.5394E+03
     -4.593  0.9410E+01  0.5399E+03
     -4.543  0.8149E+01  0.5403E+03
     -4.492  0.7686E+01  0.5407E+03
     -4.442  0.7876E+01  0.5411E+03
     -4.392  0.8568E+01  0.5415E+03
     -4.341  0.9783E+01  0.5420E+03
     -4.291  0.1168E+02  0.5426E+03
     -4.241  0.1434E+02  0.5433E+03
     -4.190  0.1756E+02  0.5442E+03
     -4.140  0.2078E+02  0.5452E+03
     -4.090  0.2327E+02  0.5464E+03
     -4.039  0.2432E+02  0.5476E+03
     -3.989  0.2359E+02  0.5488E+03
     -3.939  0.2127E+02  0.5499E+03
     -3.888  0.1815E+02  0.5508E+03
     -3.838  0.1531E+02  0.5516E+03
     -3.788  0.1373E+02  0.5523E+03
     -3.737  0.1379E+02  0.5529E+03
     -3.687  0.1515E+02  0.5537E+03
     -3.637  0.1697E+02  0.5546E+03
     -3.586  0.1845E+02  0.5555E+03
     -3.536  0.1919E+02  0.5565E+03
     -3.486  0.1934E+02  0.5574E+03
     -3.435  0.1939E+02  0.5584E+03
     -3.385  0.1970E+02  0.5594E+03
     -3.335  0.2036E+02  0.5604E+03
     -3.284  0.2110E+02  0.5615E+03
     -3.234  0.2158E+02  0.5626E+03
     -3.184  0.2158E+02  0.5637E+03
     -3.133  0.2114E+02  0.5647E+03
     -3.083  0.2048E+02  0.5658E+03
     -3.032  0.1989E+02  0.5668E+03
     -2.982  0.1959E+02  0.5677E+03
     -2.932  0.1978E+02  0.5687E+03
     -2.881  0.2070E+02  0.5698E+03
     -2.831  0.2249E+02  0.5709E+03
     -2.781  0.2510E+02  0.5722E+03
     -2.730  0.2803E+02  0.5736E+03
     -2.680  0.3041E+02  0.5751E+03
     -2.630  0.3133E+02  0.5767E+03
     -2.579  0.3030E+02  0.5782E+03
     -2.529  0.2759E+02  0.5796E+03
     -2.479  0.2411E+02  0.5808E+03
     -2.428  0.2106E+02  0.5819E+03
     -2.378  0.1938E+02  0.5829E+03
     -2.328  0.1938E+02  0.5838E+03
     -2.277  0.2064E+02  0.5849E+03
     -2.227  0.2232E+02  0.5860E+03
     -2.177  0.2347E+02  0.5872E+03
     -2.126  0.2343E+02  0.5884E+03
     -2.076  0.2213E+02  0.5895E+03
     -2.026  0.2018E+02  0.5905E+03
     -1.975  0.1869E+02  0.5914E+03
     -1.925  0.1888E+02  0.5924E+03
     -1.875  0.2147E+02  0.5935E+03
     -1.824  0.2622E+02  0.5948E+03
     -1.774  0.3178E+02  0.5964E+03
     -1.724  0.3617E+02  0.5982E+03
     -1.673  0.3760E+02  0.6001E+03
     -1.623  0.3532E+02  0.6019E+03
     -1.573  0.3001E+02  0.6034E+03
     -1.522  0.2344E+02  0.6046E+03
     -1.472  0.1772E+02  0.6054E+03
     -1.422  0.1446E+02  0.6062E+03
     -1.371  0.1434E+02  0.6069E+03
     -1.321  0.1712E+02  0.6078E+03
     -1.271  0.2190E+02  0.6089E+03
     -1.220  0.2752E+02  0.6102E+03
     -1.170  0.3283E+02  0.6119E+03
     -1.120  0.3687E+02  0.6138E+03
     -1.069  0.3899E+02  0.6157E+03
     -1.019  0.3888E+02  0.6177E+03
     -0.969  0.3657E+02  0.6195E+03
     -0.918  0.3250E+02  0.6211E+03
     -0.868  0.2741E+02  0.6225E+03
     -0.818  0.2219E+02  0.6236E+03
     -0.767  0.1767E+02  0.6245E+03
     -0.717  0.1455E+02  0.6253E+03
     -0.667  0.1328E+02  0.6259E+03
     -0.616  0.1413E+02  0.6266E+03
     -0.566  0.1702E+02  0.6275E+03
     -0.516  0.2138E+02  0.6286E+03
     -0.465  0.2621E+02  0.6299E+03
     -0.415  0.3027E+02  0.6314E+03
     -0.365  0.3258E+02  0.6331E+03
     -0.314  0.3278E+02  0.6347E+03
     -0.264  0.3136E+02  0.6363E+03
     -0.214  0.2944E+02  0.6378E+03
     -0.163  0.2849E+02  0.6392E+03
     -0.113  0.2996E+02  0.6407E+03
     -0.063  0.3495E+02  0.6425E+03
     -0.012  0.4409E+02  0.6447E+03
      0.038  0.5751E+02  0.6476E+03
      0.088  0.7505E+02  0.6514E+03
      0.139  0.9633E+02  0.6562E+03
      0.189  0.1206E+03  0.6623E+03
      0.239  0.1466E+03  0.6697E+03
      0.290  0.1722E+03  0.6783E+03
      0.340  0.1955E+03  0.6882E+03
      0.390  0.2141E+03  0.6989E+03
      0.441  0.2261E+03  0.7103E+03
      0.491  0.2290E+03  0.7219E+03
      0.541  0.2205E+03  0.7330E+03
      0.592  0.1993E+03  0.7430E+03
      0.642  0.1668E+03  0.7514E+03
      0.692  0.1279E+03  0.7578E+03
      0.743  0.8886E+02  0.7623E+03
      0.793  0.5561E+02  0.7651E+03
      0.843  0.3117E+02  0.7667E+03
      0.894  0.1560E+02  0.7674E+03
      0.944  0.6948E+01  0.7678E+03
      0.994  0.2751E+01  0.7679E+03
      1.045  0.9665E+00  0.7680E+03
      1.095  0.3011E+00  0.7680E+03
      1.145  0.8308E-01  0.7680E+03
      1.196  0.2030E-01  0.7680E+03
      1.246  0.4390E-02  0.7680E+03
      1.296  0.8397E-03  0.7680E+03
      1.347  0.1421E-03  0.7680E+03
      1.397  0.2124E-04  0.7680E+03
      1.447  0.2808E-05  0.7680E+03
      1.498  0.3280E-06  0.7680E+03
      1.548  0.3386E-07  0.7680E+03
      1.598  0.3087E-08  0.7680E+03
      1.649  0.2485E-09  0.7680E+03
      1.699  0.1768E-10  0.7680E+03
      1.749  0.1120E-11  0.7680E+03
      1.800  0.4411E-13  0.7680E+03
      1.850  0.0000E+00  0.7680E+03
      1.900  0.0000E+00  0.7680E+03
      1.951  0.0000E+00  0.7680E+03
      2.001  0.0000E+00  0.7680E+03
      2.051  0.0000E+00  0.7680E+03
      2.102  0.0000E+00  0.7680E+03
      2.152  0.0000E+00  0.7680E+03
      2.202  0.0000E+00  0.7680E+03
      2.253  0.0000E+00  0.7680E+03
      2.303  0.0000E+00  0.7680E+03
      2.353  0.0000E+00  0.7680E+03
      2.404  0.0000E+00  0.7680E+03
      2.454  0.0000E+00  0.7680E+03
      2.504  0.0000E+00  0.7680E+03
      2.555  0.0000E+00  0.7680E+03
      2.605  0.0000E+00  0.7680E+03
