 vasp.6.3.0 20Jan22 (build Jul 12 2024 16:06:18) gamma-only                     
  
 executed on             LinuxIFC date 2024.10.30  13:03:49
 running on   96 total cores
 distrk:  each k-point on   96 cores,    1 groups
 distr:  one band on NCORE=   1 cores,   96 groups


--------------------------------------------------------------------------------------------------------


 INCAR:
   ENCUT = 400.000000
   SIGMA = 0.200000
   EDIFF = 1.00e-06
   EDIFFG = -4.00e-02
   GGA = PE
   PREC = Accurate
   IBRION = -1
   ISMEAR = 0
   NSW = 0
   LCHARG = .FALSE.
   LSCALAPACK = .FALSE.
   LWAVE = .FALSE.
   LREAL = Auto

 POTCAR:    PAW_PBE Ag 02Apr2005                  
 -----------------------------------------------------------------------------
|                                                                             |
|           W    W    AA    RRRRR   N    N  II  N    N   GGGG   !!!           |
|           W    W   A  A   R    R  NN   N  II  NN   N  G    G  !!!           |
|           W    W  A    A  R    R  N N  N  II  N N  N  G       !!!           |
|           W WW W  AAAAAA  RRRRR   N  N N  II  N  N N  G  GGG   !            |
|           WW  WW  A    A  R   R   N   NN  II  N   NN  G    G                |
|           W    W  A    A  R    R  N    N  II  N    N   GGGG   !!!           |
|                                                                             |
|     For optimal performance we recommend to set                             |
|       NCORE = 2 up to number-of-cores-per-socket                            |
|     NCORE specifies how many cores store one orbital (NPAR=cpu/NCORE).      |
|     This setting can greatly improve the performance of VASP for DFT.       |
|     The default, NCORE=1 might be grossly inefficient on modern             |
|     multi-core architectures or massively parallel machines. Do your        |
|     own testing! More info at https://www.vasp.at/wiki/index.php/NCORE      |
|     Unfortunately you need to use the default for GW and RPA                |
|     calculations (for HF NCORE is supported but not extensively tested      |
|     yet).                                                                   |
|                                                                             |
 -----------------------------------------------------------------------------

 POTCAR:    PAW_PBE Ag 02Apr2005                  
   SHA256 =  6550cfa3543261e132c169e1b98a529204624d72be14e2da2e0242bcb74a174d Ag/POTCAR             
   COPYR  = (c) Copyright 02Apr2005 Georg Kresse                                                    
   COPYR  = This file is part of the software VASP. Any use, copying, and all other rights are regul
   COPYR  = If you do not have a valid VASP license, you may not use, copy or distribute this file. 
   VRHFIN =Ag : s1 d10                                                                              
   LEXCH  = PE                                                                                      
   EATOM  =  1037.2675 eV,   76.2370 Ry                                                             
                                                                                                    
   TITEL  = PAW_PBE Ag 02Apr2005                                                                    
   LULTRA =        F    use ultrasoft PP ?                                                          
   IUNSCR =        1    unscreen: 0-lin 1-nonlin 2-no                                               
   RPACOR =    2.000    partial core radius                                                         
   POMASS =  107.868; ZVAL   =   11.000    mass and valenz                                          
   RCORE  =    2.500    outmost cutoff radius                                                       
   RWIGS  =    2.840; RWIGS  =    1.503    wigner-seitz radius (au A)                               
   ENMAX  =  249.844; ENMIN  =  187.383 eV                                                          
   ICORE  =        3    local potential                                                             
   LCOR   =        T    correct aug charges                                                         
   LPAW   =        T    paw PP                                                                      
   EAUG   =  412.496                                                                                
   DEXC   =    0.000                                                                                
   RMAX   =    2.560    core radius for proj-oper                                                   
   RAUG   =    1.300    factor for augmentation sphere                                              
   RDEP   =    2.576    radius for radial grids                                                     
   RDEPT  =    2.072    core radius for aug-charge                                                  
                                                                                                    
   Atomic configuration                                                                             
   12 entries                                                                                       
     n  l   j            E        occ.                                                              
     1  0  0.50    -25324.9161   2.0000                                                             
     2  0  0.50     -3728.5341   2.0000                                                             
     2  1  1.50     -3344.0404   6.0000                                                             
     3  0  0.50      -683.5581   2.0000                                                             
     3  1  1.50      -557.3225   6.0000                                                             
     3  2  2.50      -358.3853  10.0000                                                             
     4  0  0.50       -95.0341   2.0000                                                             
     4  1  1.50       -58.5511   6.0000                                                             
     4  2  2.50        -7.4440  10.0000                                                             
     5  0  0.50        -4.4045   1.0000                                                             
     5  1  0.50        -1.3606   0.0000                                                             
     4  3  2.50        -1.3606   0.0000                                                             
   Description                                                                                      
     l       E           TYP  RCUT    TYP  RCUT                                                     
     2     -7.4439781     23  2.400                                                                 
     2     -8.8045607     23  2.400                                                                 
     0     -4.4044681     23  2.400                                                                 
     0      1.9520038     23  2.400                                                                 
     1     -1.3605826     23  2.500                                                                 
     1     27.2116520     23  2.500                                                                 
     3     -4.0817478     23  2.400                                                                 
  local pseudopotential read in
  partial core-charges read in
  partial kinetic energy density read in
  atomic valenz-charges read in
  non local Contribution for L=           2  read in
    real space projection operators read in
  non local Contribution for L=           2  read in
    real space projection operators read in
  non local Contribution for L=           0  read in
    real space projection operators read in
  non local Contribution for L=           0  read in
    real space projection operators read in
  non local Contribution for L=           1  read in
    real space projection operators read in
  non local Contribution for L=           1  read in
    real space projection operators read in
    PAW grid and wavefunctions read in
 
   number of l-projection  operators is LMAX  =           6
   number of lm-projection operators is LMMAX =          18
 
 Optimization of the real space projectors (new method)

 maximal supplied QI-value         = 15.12
 optimisation between [QCUT,QGAM] = [ 10.13, 20.41] = [ 28.73,116.64] Ry 
 Optimized for a Real-space Cutoff    1.55 Angstroem

   l    n(q)    QCUT    max X(q) W(low)/X(q) W(high)/X(q)  e(spline) 
   2      9    10.129    53.897    0.12E-03    0.59E-04    0.12E-06
   2      9    10.129    52.416    0.12E-03    0.58E-04    0.12E-06
   0      9    10.129   122.045    0.47E-04    0.63E-05    0.83E-07
   0      9    10.129    73.629    0.43E-04    0.60E-05    0.80E-07
   1      9    10.129    15.255    0.12E-03    0.81E-05    0.12E-06
   1      9    10.129     9.562    0.10E-03    0.55E-05    0.10E-06
  PAW_PBE Ag 02Apr2005                  :
 energy of atom  1       EATOM=-1037.2675
 kinetic energy error for atom=    0.0091 (will be added to EATOM!!)
 
 
 POSCAR: Ag
  positions in cartesian coordinates
  No initial velocities read in
 exchange correlation table for  LEXCH =        8
   RHO(1)=    0.500       N(1)  =     2000
   RHO(2)=  100.500       N(2)  =     4000

 VTST: version 4.2, (08/11/21)

 CHAIN: initializing optimizer
 
 OPT: Using VASP Dynamics algorithm
 CHAIN: Read ICHAIN            0
 
 POSCAR: Ag
  positions in cartesian coordinates
  No initial velocities read in
 


--------------------------------------------------------------------------------------------------------


 ion  position               nearest neighbor table
   1  0.475  0.525  0.525-   2 2.90   3 2.90   8 2.90   5 2.90   6 2.90   7 2.90   4 2.90   9 2.90
                            10 2.90  17 2.90  18 2.90  19 2.90
   2  0.525  0.525  0.475-   1 2.90   3 2.90   8 2.90   7 2.90   4 2.90  11 2.90  13 2.90  14 2.90
                            15 2.90  20 2.90  21 2.90  36 2.90
   3  0.525  0.475  0.525-   1 2.90   2 2.90   8 2.90   5 2.90  10 2.90  12 2.90  13 2.90  14 2.90
                            16 2.90  22 2.90  23 2.90  24 2.90
   4  0.525  0.576  0.525-   7 2.90   2 2.90   1 2.90  19 2.90  20 2.90  25 2.90  26 2.90   5 2.90
                            13 2.90  30 2.90  31 2.90  32 2.90
   5  0.525  0.525  0.576-  10 2.90   3 2.90   1 2.90  19 2.90  23 2.90  28 2.90  29 2.90   4 2.90
                            13 2.90  31 2.90  33 2.90  34 2.90
   6  0.424  0.525  0.475-   9 2.90   8 2.90   1 2.90  17 2.90  39 2.90  40 2.90  41 2.90   7 2.90
                            11 2.90
   7  0.475  0.576  0.475-   4 2.90   2 2.90   1 2.90  17 2.90  21 2.90  25 2.90  26 2.90   6 2.90
                            11 2.90
   8  0.475  0.475  0.475-   1 2.90   2 2.90   3 2.90   6 2.90   9 2.90  11 2.90  12 2.90  15 2.90
                            16 2.90  41 2.90  42 2.90  43 2.90
   9  0.424  0.475  0.525-   6 2.90   1 2.90   8 2.90  18 2.90  39 2.90  40 2.90  42 2.90  10 2.90
                            12 2.90
  10  0.475  0.475  0.576-   5 2.90   3 2.90   1 2.90  18 2.90  24 2.90  28 2.90  29 2.90   9 2.90
                            12 2.90
  11  0.475  0.525  0.424-  15 2.90   8 2.90   2 2.90  21 2.90  41 2.90  44 2.90  45 2.90   6 2.90
                             7 2.90
  12  0.475  0.424  0.525-  16 2.90   8 2.90   3 2.90  24 2.90  42 2.90  46 2.90  47 2.90  10 2.90
                             9 2.90
  13  0.576  0.525  0.525-  14 2.90   3 2.90   2 2.90  20 2.90  23 2.90  27 2.90  38 2.90   5 2.90
                            31 2.90  35 2.90  37 2.90   4 2.90
  14  0.576  0.475  0.475-  13 2.90   3 2.90   2 2.90  22 2.90  27 2.90  36 2.90  38 2.90  15 2.90
                            16 2.90
  15  0.525  0.475  0.424-  11 2.90   8 2.90   2 2.90  36 2.90  43 2.90  44 2.90  45 2.90  14 2.90
                            16 2.90
  16  0.525  0.424  0.475-  12 2.90   8 2.90   3 2.90  22 2.90  43 2.90  46 2.90  47 2.90  14 2.90
                            15 2.90
  17  0.424  0.576  0.525-   6 2.90   7 2.90   1 2.90  18 2.90  19 2.90  25 2.90  39 2.90
  18  0.424  0.525  0.576-   9 2.90  10 2.90   1 2.90  17 2.90  19 2.90  28 2.90  39 2.90
  19  0.475  0.576  0.576-   4 2.90   5 2.90  32 2.90  34 2.90  18 2.90  25 2.90  28 2.90   1 2.90
                            17 2.90
  20  0.576  0.576  0.475-   4 2.90  13 2.90  30 2.90  37 2.90  26 2.90   2 2.90  36 2.90  21 2.90
                            38 2.90
  21  0.525  0.576  0.424-   7 2.90  11 2.90   2 2.90  20 2.90  26 2.90  36 2.90  44 2.90
  22  0.576  0.424  0.525-  14 2.90  16 2.90   3 2.90  23 2.90  24 2.90  27 2.90  46 2.90
  23  0.576  0.475  0.576-   5 2.90  13 2.90  33 2.90  35 2.90  24 2.90  27 2.90  29 2.90   3 2.90
                            22 2.90
  24  0.525  0.424  0.576-  10 2.90  12 2.90   3 2.90  22 2.90  23 2.90  29 2.90  46 2.90
  25  0.475  0.626  0.525-  26 2.90   7 2.90   4 2.90  32 2.90  17 2.90  19 2.90
  26  0.525  0.626  0.475-  25 2.90   7 2.90   4 2.90  30 2.90  20 2.90  21 2.90
  27  0.626  0.475  0.525-  38 2.90  14 2.90  35 2.90  13 2.90  22 2.90  23 2.90
  28  0.475  0.525  0.626-  29 2.90  10 2.90   5 2.90  34 2.90  18 2.90  19 2.90
  29  0.525  0.475  0.626-  28 2.90  10 2.90   5 2.90  33 2.90  23 2.90  24 2.90
  30  0.576  0.626  0.525-  20 2.90  26 2.90   4 2.90  31 2.90  32 2.90  37 2.90
  31  0.576  0.576  0.576-   4 2.90   5 2.90  13 2.90  30 2.90  32 2.90  33 2.90  34 2.90  35 2.90
                            37 2.90
  32  0.525  0.626  0.576-  19 2.90  25 2.90   4 2.90  30 2.90  31 2.90  34 2.90
  33  0.576  0.525  0.626-  23 2.90  29 2.90   5 2.90  31 2.90  34 2.90  35 2.90
  34  0.525  0.576  0.626-  19 2.90  28 2.90   5 2.90  31 2.90  32 2.90  33 2.90
  35  0.626  0.525  0.576-  23 2.90  27 2.90  13 2.90  31 2.90  33 2.90  37 2.90
  36  0.576  0.525  0.424-  14 2.90  15 2.90   2 2.90  20 2.90  21 2.90  38 2.90  44 2.90
  37  0.626  0.576  0.525-  20 2.90  38 2.90  30 2.90  31 2.90  35 2.90  13 2.90
  38  0.626  0.525  0.475-  27 2.90  14 2.90  13 2.90  37 2.90  36 2.90  20 2.90
  39  0.374  0.525  0.525-  40 2.90   9 2.90   6 2.90  18 2.90  17 2.90
  40  0.374  0.475  0.475-  39 2.90   9 2.90   6 2.90  41 2.90  42 2.90  48 2.90
  41  0.424  0.475  0.424-   6 2.90  11 2.90   8 2.90  40 2.90  42 2.90  43 2.90  45 2.90  48 2.90
                            49 2.90
  42  0.424  0.424  0.475-   9 2.90  12 2.90   8 2.90  40 2.90  41 2.90  43 2.90  47 2.90  48 2.90
                            50 2.90
  43  0.475  0.424  0.424-  15 2.90  16 2.90   8 2.90  41 2.90  42 2.90  45 2.90  47 2.90  49 2.90
                            50 2.90
  44  0.525  0.525  0.374-  45 2.90  15 2.90  11 2.90  36 2.90  21 2.90
  45  0.475  0.475  0.374-  44 2.90  15 2.90  11 2.90  43 2.90  41 2.90  49 2.90
  46  0.525  0.374  0.525-  47 2.90  16 2.90  12 2.90  24 2.90  22 2.90
  47  0.475  0.374  0.475-  46 2.90  16 2.90  12 2.90  43 2.90  42 2.90  50 2.90
  48  0.374  0.424  0.424-  40 2.90  41 2.90  42 2.90  49 2.90  50 2.90
  49  0.424  0.424  0.374-  41 2.90  43 2.90  45 2.90  48 2.90  50 2.90
  50  0.424  0.374  0.424-  42 2.90  43 2.90  47 2.90  48 2.90  49 2.90
 
  LATTYP: Found a simple cubic cell.
 ALAT       =    40.7000000000
  
  Lattice vectors:
  
 A1 = (  40.7000000000,   0.0000000000,   0.0000000000)
 A2 = (   0.0000000000,  40.7000000000,   0.0000000000)
 A3 = (   0.0000000000,   0.0000000000,  40.7000000000)


Analysis of symmetry for initial positions (statically):
=====================================================================
 Subroutine PRICEL returns:
 Original cell was already a primitive cell.
 

 Routine SETGRP: Setting up the symmetry group for a 
 simple cubic supercell.


 Subroutine GETGRP returns: Found  6 space group operations
 (whereof  6 operations were pure point group operations)
 out of a pool of 48 trial point group operations.


The static configuration has the point symmetry C_3v.


Analysis of symmetry for dynamics (positions and initial velocities):
=====================================================================
 Subroutine PRICEL returns:
 Original cell was already a primitive cell.
 

 Routine SETGRP: Setting up the symmetry group for a 
 simple cubic supercell.


 Subroutine GETGRP returns: Found  6 space group operations
 (whereof  6 operations were pure point group operations)
 out of a pool of 48 trial point group operations.


The dynamic configuration has the point symmetry C_3v.


 Subroutine INISYM returns: Found  6 space group operations
 (whereof  6 operations are pure point group operations),
 and found     1 'primitive' translations


----------------------------------------------------------------------------------------

                                     Primitive cell                                     

  volume of cell :   67419.1430

  direct lattice vectors                    reciprocal lattice vectors
    40.700000000  0.000000000  0.000000000     0.024570025  0.000000000  0.000000000
     0.000000000 40.700000000  0.000000000     0.000000000  0.024570025  0.000000000
     0.000000000  0.000000000 40.700000000     0.000000000  0.000000000  0.024570025

  length of vectors
    40.700000000 40.700000000 40.700000000     0.024570025  0.024570025  0.024570025

  position of ions in fractional coordinates (direct lattice)
     0.474815725  0.525184275  0.525184275
     0.525184275  0.525184275  0.474815725
     0.525184275  0.474815725  0.525184275
     0.525184275  0.575552826  0.525184275
     0.525184275  0.525184275  0.575552826
     0.424447174  0.525184275  0.474815725
     0.474815725  0.575552826  0.474815725
     0.474815725  0.474815725  0.474815725
     0.424447174  0.474815725  0.525184275
     0.474815725  0.474815725  0.575552826
     0.474815725  0.525184275  0.424447174
     0.474815725  0.424447174  0.525184275
     0.575552826  0.525184275  0.525184275
     0.575552826  0.474815725  0.474815725
     0.525184275  0.474815725  0.424447174
     0.525184275  0.424447174  0.474815725
     0.424447174  0.575552826  0.525184275
     0.424447174  0.525184275  0.575552826
     0.474815725  0.575552826  0.575552826
     0.575552826  0.575552826  0.474815725
     0.525184275  0.575552826  0.424447174
     0.575552826  0.424447174  0.525184275
     0.575552826  0.474815725  0.575552826
     0.525184275  0.424447174  0.575552826
     0.474815725  0.625921376  0.525184275
     0.525184275  0.625921376  0.474815725
     0.625921376  0.474815725  0.525184275
     0.474815725  0.525184275  0.625921376
     0.525184275  0.474815725  0.625921376
     0.575552826  0.625921376  0.525184275
     0.575552826  0.575552826  0.575552826
     0.525184275  0.625921376  0.575552826
     0.575552826  0.525184275  0.625921376
     0.525184275  0.575552826  0.625921376
     0.625921376  0.525184275  0.575552826
     0.575552826  0.525184275  0.424447174
     0.625921376  0.575552826  0.525184275
     0.625921376  0.525184275  0.474815725
     0.374078624  0.525184275  0.525184275
     0.374078624  0.474815725  0.474815725
     0.424447174  0.474815725  0.424447174
     0.424447174  0.424447174  0.474815725
     0.474815725  0.424447174  0.424447174
     0.525184275  0.525184275  0.374078624
     0.474815725  0.474815725  0.374078624
     0.525184275  0.374078624  0.525184275
     0.474815725  0.374078624  0.474815725
     0.374078624  0.424447174  0.424447174
     0.424447174  0.424447174  0.374078624
     0.424447174  0.374078624  0.424447174

  ion indices of the primitive-cell ions
   primitive index   ion index
                 1           1
                 2           2
                 3           3
                 4           4
                 5           5
                 6           6
                 7           7
                 8           8
                 9           9
                10          10
                11          11
                12          12
                13          13
                14          14
                15          15
                16          16
                17          17
                18          18
                19          19
                20          20
                21          21
                22          22
                23          23
                24          24
                25          25
                26          26
                27          27
                28          28
                29          29
                30          30
                31          31
                32          32
                33          33
                34          34
                35          35
                36          36
                37          37
                38          38
                39          39
                40          40
                41          41
                42          42
                43          43
                44          44
                45          45
                46          46
                47          47
                48          48
                49          49
                50          50

----------------------------------------------------------------------------------------

 
 
 KPOINTS: KPOINTS created by Atomic Simulation Env

Automatic generation of k-mesh.
 Grid dimensions read from file:
 generate k-points for:    1    1    1

 Generating k-lattice:

  Cartesian coordinates                     Fractional coordinates (reciprocal lattice)
     0.024570025  0.000000000  0.000000000     1.000000000  0.000000000  0.000000000
     0.000000000  0.024570025  0.000000000     0.000000000  1.000000000  0.000000000
     0.000000000  0.000000000  0.024570025     0.000000000  0.000000000  1.000000000

  Length of vectors
     0.024570025  0.024570025  0.024570025

  Shift w.r.t. Gamma in fractional coordinates (k-lattice)
     0.000000000  0.000000000  0.000000000

 
 Subroutine IBZKPT returns following result:
 ===========================================
 
 Found      1 irreducible k-points:
 
 Following reciprocal coordinates:
            Coordinates               Weight
  0.000000  0.000000  0.000000      1.000000
 
 Following cartesian coordinates:
            Coordinates               Weight
  0.000000  0.000000  0.000000      1.000000
 


--------------------------------------------------------------------------------------------------------




 Dimension of arrays:
   k-points           NKPTS =      1   k-points in BZ     NKDIM =      1   number of bands    NBANDS=    384
   number of dos      NEDOS =    301   number of ions     NIONS =     50
   non local maximal  LDIM  =      6   non local SUM 2l+1 LMDIM =     18
   total plane-waves  NPLWV = ******
   max r-space proj   IRMAX =   4637   max aug-charges    IRDMAX=  14553
   dimension x,y,z NGX =   270 NGY =  270 NGZ =  270
   dimension x,y,z NGXF=   540 NGYF=  540 NGZF=  540
   support grid    NGXF=   540 NGYF=  540 NGZF=  540
   ions per type =              50
   NGX,Y,Z   is equivalent  to a cutoff of  11.03, 11.03, 11.03 a.u.
   NGXF,Y,Z  is equivalent  to a cutoff of  22.06, 22.06, 22.06 a.u.

 SYSTEM =  unknown system                          
 POSCAR =  Ag                                      

 Startparameter for this run:
   NWRITE =      2    write-flag & timer
   PREC   = accura    normal or accurate (medium, high low for compatibility)
   ISTART =      0    job   : 0-new  1-cont  2-samecut
   ICHARG =      2    charge: 1-file 2-atom 10-const
   ISPIN  =      1    spin polarized calculation?
   LNONCOLLINEAR =      F non collinear calculations
   LSORBIT =      F    spin-orbit coupling
   INIWAV =      1    electr: 0-lowe 1-rand  2-diag
   LASPH  =      F    aspherical Exc in radial PAW
 Electronic Relaxation 1
   ENCUT  =  400.0 eV  29.40 Ry    5.42 a.u.  66.37 66.37 66.37*2*pi/ulx,y,z
   ENINI  =  400.0     initial cutoff
   ENAUG  =  412.5 eV  augmentation charge cutoff
   NELM   =     60;   NELMIN=  2; NELMDL= -5     # of ELM steps 
   EDIFF  = 0.1E-05   stopping-criterion for ELM
   LREAL  =      T    real-space projection
   NLSPLINE    = F    spline interpolate recip. space projectors
   LCOMPAT=      F    compatible to vasp.4.4
   GGA_COMPAT  = T    GGA compatible to vasp.4.4-vasp.4.6
   LMAXPAW     = -100 max onsite density
   LMAXMIX     =    2 max onsite mixed and CHGCAR
   VOSKOWN=      0    Vosko Wilk Nusair interpolation
   ROPT   =   -0.00025
 Ionic relaxation
   EDIFFG = -.4E-01   stopping-criterion for IOM
   NSW    =      0    number of steps for IOM
   NBLOCK =      1;   KBLOCK =      1    inner block; outer block 
   IBRION =     -1    ionic relax: 0-MD 1-quasi-New 2-CG
   NFREE  =      0    steps in history (QN), initial steepest desc. (CG)
   ISIF   =      2    stress and relaxation
   IWAVPR =     10    prediction:  0-non 1-charg 2-wave 3-comb
   ISYM   =      2    0-nonsym 1-usesym 2-fastsym
   LCORR  =      T    Harris-Foulkes like correction to forces

   POTIM  = 0.5000    time-step for ionic-motion
   TEIN   =    0.0    initial temperature
   TEBEG  =    0.0;   TEEND  =   0.0 temperature during run
   SMASS  =  -3.00    Nose mass-parameter (am)
   estimated Nose-frequenzy (Omega)   =  0.10E-29 period in steps = 0.13E+47 mass=  -0.379E-25a.u.
   SCALEE = 1.0000    scale energy and forces
   NPACO  =    256;   APACO  = 10.0  distance and # of slots for P.C.
   PSTRESS=    0.0 pullay stress

  Mass of Ions in am
   POMASS = 107.87
  Ionic Valenz
   ZVAL   =  11.00
  Atomic Wigner-Seitz radii
   RWIGS  =  -1.00
  virtual crystal weights 
   VCA    =   1.00
   NELECT =     550.0000    total number of electrons
   NUPDOWN=      -1.0000    fix difference up-down

 DOS related values:
   EMIN   =  10.00;   EMAX   =-10.00  energy-range for DOS
   EFERMI =   0.00
   ISMEAR =     0;   SIGMA  =   0.20  broadening in eV -4-tet -1-fermi 0-gaus

 Electronic relaxation 2 (details)
   IALGO  =     38    algorithm
   LDIAG  =      T    sub-space diagonalisation (order eigenvalues)
   LSUBROT=      F    optimize rotation matrix (better conditioning)
   TURBO    =      0    0=normal 1=particle mesh
   IRESTART =      0    0=no restart 2=restart with 2 vectors
   NREBOOT  =      0    no. of reboots
   NMIN     =      0    reboot dimension
   EREF     =   0.00    reference energy to select bands
   IMIX   =      4    mixing-type and parameters
     AMIX     =   0.40;   BMIX     =  1.00
     AMIX_MAG =   1.60;   BMIX_MAG =  1.00
     AMIN     =   0.10
     WC   =   100.;   INIMIX=   1;  MIXPRE=   1;  MAXMIX= -45

 Intra band minimization:
   WEIMIN = 0.0000     energy-eigenvalue tresh-hold
   EBREAK =  0.65E-09  absolut break condition
   DEPER  =   0.30     relativ break condition  

   TIME   =   0.40     timestep for ELM

  volume/ion in A,a.u.               =    1348.38      9099.34
  Fermi-wavevector in a.u.,A,eV,Ry     =   0.329560  0.622778  1.477727  0.108610
  Thomas-Fermi vector in A             =   1.224112
 
 Write flags
   LWAVE        =      F    write WAVECAR
   LDOWNSAMPLE  =      F    k-point downsampling of WAVECAR
   LCHARG       =      F    write CHGCAR
   LVTOT        =      F    write LOCPOT, total local potential
   LVHAR        =      F    write LOCPOT, Hartree potential only
   LELF         =      F    write electronic localiz. function (ELF)
   LORBIT       =      0    0 simple, 1 ext, 2 COOP (PROOUT), +10 PAW based schemes


 Dipole corrections
   LMONO  =      F    monopole corrections only (constant potential shift)
   LDIPOL =      F    correct potential (dipole corrections)
   IDIPOL =      0    1-x, 2-y, 3-z, 4-all directions 
   EPSILON=  1.0000000 bulk dielectric constant

 Exchange correlation treatment:
   GGA     =    PE    GGA type
   LEXCH   =     8    internal setting for exchange type
   LIBXC   =     F    Libxc                    
   VOSKOWN =     0    Vosko Wilk Nusair interpolation
   LHFCALC =     F    Hartree Fock is set to
   LHFONE  =     F    Hartree Fock one center treatment
   AEXX    =    0.0000 exact exchange contribution

 Linear response parameters
   LEPSILON=     F    determine dielectric tensor
   LRPA    =     F    only Hartree local field effects (RPA)
   LNABLA  =     F    use nabla operator in PAW spheres
   LVEL    =     F    velocity operator in full k-point grid
   CSHIFT  =0.1000    complex shift for real part using Kramers Kronig
   OMEGAMAX=  -1.0    maximum frequency
   DEG_THRESHOLD= 0.2000000E-02 threshold for treating states as degnerate
   RTIME   =   -0.100 relaxation time in fs
  (WPLASMAI=    0.000 imaginary part of plasma frequency in eV, 0.658/RTIME)
   DFIELD  = 0.0000000 0.0000000 0.0000000 field for delta impulse in time
 
  Optional k-point grid parameters
   LKPOINTS_OPT  =     F    use optional k-point grid
   KPOINTS_OPT_MODE=     1    mode for optional k-point grid
 
 Orbital magnetization related:
   ORBITALMAG=     F  switch on orbital magnetization
   LCHIMAG   =     F  perturbation theory with respect to B field
   DQ        =  0.001000  dq finite difference perturbation B field
   LLRAUG    =     F  two centre corrections for induced B field



--------------------------------------------------------------------------------------------------------


 Static calculation
 charge density and potential will be updated during run
 non-spin polarized calculation
 Variant of blocked Davidson
 Davidson routine will perform the subspace rotation
 perform sub-space diagonalisation
    after iterative eigenvector-optimisation
 modified Broyden-mixing scheme, WC =      100.0
 initial mixing is a Kerker type mixing with AMIX =  0.4000 and BMIX =      1.0000
 Hartree-type preconditioning will be used
 using additional bands          109
 real space projection scheme for non local part
 use partial core corrections
 calculate Harris-corrections to forces 
   (improved forces if not selfconsistent)
 use gradient corrections 
 use of overlap-Matrix (Vanderbilt PP)
 Gauss-broadening in eV      SIGMA  =   0.20


--------------------------------------------------------------------------------------------------------


  energy-cutoff  :      400.00
  volume of cell :    67419.14
      direct lattice vectors                 reciprocal lattice vectors
    40.700000000  0.000000000  0.000000000     0.024570025  0.000000000  0.000000000
     0.000000000 40.700000000  0.000000000     0.000000000  0.024570025  0.000000000
     0.000000000  0.000000000 40.700000000     0.000000000  0.000000000  0.024570025

  length of vectors
    40.700000000 40.700000000 40.700000000     0.024570025  0.024570025  0.024570025


 
 k-points in units of 2pi/SCALE and weight: KPOINTS created by Atomic Simulation Env
   0.00000000  0.00000000  0.00000000       1.000
 
 k-points in reciprocal lattice and weights: KPOINTS created by Atomic Simulation Env
   0.00000000  0.00000000  0.00000000       1.000
 
 position of ions in fractional coordinates (direct lattice) 
   0.47481572  0.52518428  0.52518428
   0.52518428  0.52518428  0.47481572
   0.52518428  0.47481572  0.52518428
   0.52518428  0.57555283  0.52518428
   0.52518428  0.52518428  0.57555283
   0.42444717  0.52518428  0.47481572
   0.47481572  0.57555283  0.47481572
   0.47481572  0.47481572  0.47481572
   0.42444717  0.47481572  0.52518428
   0.47481572  0.47481572  0.57555283
   0.47481572  0.52518428  0.42444717
   0.47481572  0.42444717  0.52518428
   0.57555283  0.52518428  0.52518428
   0.57555283  0.47481572  0.47481572
   0.52518428  0.47481572  0.42444717
   0.52518428  0.42444717  0.47481572
   0.42444717  0.57555283  0.52518428
   0.42444717  0.52518428  0.57555283
   0.47481572  0.57555283  0.57555283
   0.57555283  0.57555283  0.47481572
   0.52518428  0.57555283  0.42444717
   0.57555283  0.42444717  0.52518428
   0.57555283  0.47481572  0.57555283
   0.52518428  0.42444717  0.57555283
   0.47481572  0.62592138  0.52518428
   0.52518428  0.62592138  0.47481572
   0.62592138  0.47481572  0.52518428
   0.47481572  0.52518428  0.62592138
   0.52518428  0.47481572  0.62592138
   0.57555283  0.62592138  0.52518428
   0.57555283  0.57555283  0.57555283
   0.52518428  0.62592138  0.57555283
   0.57555283  0.52518428  0.62592138
   0.52518428  0.57555283  0.62592138
   0.62592138  0.52518428  0.57555283
   0.57555283  0.52518428  0.42444717
   0.62592138  0.57555283  0.52518428
   0.62592138  0.52518428  0.47481572
   0.37407862  0.52518428  0.52518428
   0.37407862  0.47481572  0.47481572
   0.42444717  0.47481572  0.42444717
   0.42444717  0.42444717  0.47481572
   0.47481572  0.42444717  0.42444717
   0.52518428  0.52518428  0.37407862
   0.47481572  0.47481572  0.37407862
   0.52518428  0.37407862  0.52518428
   0.47481572  0.37407862  0.47481572
   0.37407862  0.42444717  0.42444717
   0.42444717  0.42444717  0.37407862
   0.42444717  0.37407862  0.42444717
 
 position of ions in cartesian coordinates  (Angst):
  19.32500000 21.37500000 21.37500000
  21.37500000 21.37500000 19.32500000
  21.37500000 19.32500000 21.37500000
  21.37500000 23.42500000 21.37500000
  21.37500000 21.37500000 23.42500000
  17.27500000 21.37500000 19.32500000
  19.32500000 23.42500000 19.32500000
  19.32500000 19.32500000 19.32500000
  17.27500000 19.32500000 21.37500000
  19.32500000 19.32500000 23.42500000
  19.32500000 21.37500000 17.27500000
  19.32500000 17.27500000 21.37500000
  23.42500000 21.37500000 21.37500000
  23.42500000 19.32500000 19.32500000
  21.37500000 19.32500000 17.27500000
  21.37500000 17.27500000 19.32500000
  17.27500000 23.42500000 21.37500000
  17.27500000 21.37500000 23.42500000
  19.32500000 23.42500000 23.42500000
  23.42500000 23.42500000 19.32500000
  21.37500000 23.42500000 17.27500000
  23.42500000 17.27500000 21.37500000
  23.42500000 19.32500000 23.42500000
  21.37500000 17.27500000 23.42500000
  19.32500000 25.47500000 21.37500000
  21.37500000 25.47500000 19.32500000
  25.47500000 19.32500000 21.37500000
  19.32500000 21.37500000 25.47500000
  21.37500000 19.32500000 25.47500000
  23.42500000 25.47500000 21.37500000
  23.42500000 23.42500000 23.42500000
  21.37500000 25.47500000 23.42500000
  23.42500000 21.37500000 25.47500000
  21.37500000 23.42500000 25.47500000
  25.47500000 21.37500000 23.42500000
  23.42500000 21.37500000 17.27500000
  25.47500000 23.42500000 21.37500000
  25.47500000 21.37500000 19.32500000
  15.22500000 21.37500000 21.37500000
  15.22500000 19.32500000 19.32500000
  17.27500000 19.32500000 17.27500000
  17.27500000 17.27500000 19.32500000
  19.32500000 17.27500000 17.27500000
  21.37500000 21.37500000 15.22500000
  19.32500000 19.32500000 15.22500000
  21.37500000 15.22500000 21.37500000
  19.32500000 15.22500000 19.32500000
  15.22500000 17.27500000 17.27500000
  17.27500000 17.27500000 15.22500000
  17.27500000 15.22500000 17.27500000
 


--------------------------------------------------------------------------------------------------------


 use serial FFT for orbitals x direction half grid
 k-point   1 :   0.0000 0.0000 0.0000  plane waves:  612315

 maximum and minimum number of plane-waves per node :    612315   612315

 maximum number of plane-waves:    612315
 maximum index in each direction: 
   IXMAX=   66   IYMAX=   66   IZMAX=   66
   IXMIN=    0   IYMIN=  -66   IZMIN=  -66


 serial   3D FFT for wavefunctions
 parallel 3D FFT for charge:
    minimum data exchange during FFTs selected (reduces bandwidth)


 total amount of memory used by VASP MPI-rank0  1114803. kBytes
=======================================================================

   base      :      30000. kBytes
   nonlr-proj:      35253. kBytes
   fftplans  :     137265. kBytes
   grid      :     872674. kBytes
   one-center:        388. kBytes
   wavefun   :      39223. kBytes
 
     INWAV:  cpu time      0.0000: real time      0.0002
 Broyden mixing: mesh for mixing (old mesh)
   NGX =133   NGY =133   NGZ =133
  (NGX  =540   NGY  =540   NGZ  =540)
  gives a total of ****** points

 initial charge density was supplied:
 charge density of overlapping atoms calculated
 number of electron     550.0000000 magnetization 
 keeping initial charge density in first step


--------------------------------------------------------------------------------------------------------


 Maximum index for non-local projection operator         4476
 Maximum index for augmentation-charges          644 (set IRDMAX)


--------------------------------------------------------------------------------------------------------


 First call to EWALD:  gamma=   0.044
 Maximum number of real-space cells 3x 3x 3
 Maximum number of reciprocal cells 3x 3x 3

    FEWALD:  cpu time      0.0014: real time      0.0014


--------------------------------------- Iteration      1(   1)  ---------------------------------------


    POTLOK:  cpu time      2.1489: real time      2.3534
    SETDIJ:  cpu time      0.0089: real time      0.0090
     EDDAV:  cpu time     13.1948: real time     13.2784
       DOS:  cpu time      0.0035: real time      0.0035
    --------------------------------------------
      LOOP:  cpu time     15.3561: real time     15.6443

 eigenvalue-minimisations  :   768
 total energy-change (2. order) : 0.4976475E+04  (-0.8455079E+04)
 number of electron     550.0000000 magnetization 
 augmentation part      550.0000000 magnetization 

 Free energy of the ion-electron system (eV)
  ---------------------------------------------------
  alpha Z        PSCENC =        31.54067343
  Ewald energy   TEWEN  =    245829.73528956
  -Hartree energ DENC   =   -295215.64056927
  -exchange      EXHF   =         0.00000000
  -V(xc)+E(xc)   XCENC  =      -551.14573697
  PAW double counting   =     50173.10746633   -47867.46371153
  entropy T*S    EENTRO =        -3.44358336
  eigenvalues    EBANDS =       716.86414605
  atomic energy  EATOM  =     51862.92141881
  Solvation  Ediel_sol  =         0.00000000
  ---------------------------------------------------
  free energy    TOTEN  =      4976.47539305 eV

  energy without entropy =     4979.91897641  energy(sigma->0) =     4978.19718473


--------------------------------------------------------------------------------------------------------




--------------------------------------- Iteration      1(   2)  ---------------------------------------


     EDDAV:  cpu time     22.7102: real time     22.8937
       DOS:  cpu time      0.0011: real time      0.0011
    --------------------------------------------
      LOOP:  cpu time     22.7113: real time     22.8948

 eigenvalue-minimisations  :  1536
 total energy-change (2. order) :-0.2535673E+04  (-0.2313886E+04)
 number of electron     550.0000000 magnetization 
 augmentation part      550.0000000 magnetization 

 Free energy of the ion-electron system (eV)
  ---------------------------------------------------
  alpha Z        PSCENC =        31.54067343
  Ewald energy   TEWEN  =    245829.73528956
  -Hartree energ DENC   =   -295215.64056927
  -exchange      EXHF   =         0.00000000
  -V(xc)+E(xc)   XCENC  =      -551.14573697
  PAW double counting   =     50173.10746633   -47867.46371153
  entropy T*S    EENTRO =        -5.31951526
  eigenvalues    EBANDS =     -1816.93271956
  atomic energy  EATOM  =     51862.92141881
  Solvation  Ediel_sol  =         0.00000000
  ---------------------------------------------------
  free energy    TOTEN  =      2440.80259553 eV

  energy without entropy =     2446.12211080  energy(sigma->0) =     2443.46235316


--------------------------------------------------------------------------------------------------------




--------------------------------------- Iteration      1(   3)  ---------------------------------------


     EDDAV:  cpu time     20.2356: real time     20.6368
       DOS:  cpu time      0.0011: real time      0.0011
    --------------------------------------------
      LOOP:  cpu time     20.2367: real time     20.6379

 eigenvalue-minimisations  :  1344
 total energy-change (2. order) :-0.2196482E+04  (-0.2095286E+04)
 number of electron     550.0000000 magnetization 
 augmentation part      550.0000000 magnetization 

 Free energy of the ion-electron system (eV)
  ---------------------------------------------------
  alpha Z        PSCENC =        31.54067343
  Ewald energy   TEWEN  =    245829.73528956
  -Hartree energ DENC   =   -295215.64056927
  -exchange      EXHF   =         0.00000000
  -V(xc)+E(xc)   XCENC  =      -551.14573697
  PAW double counting   =     50173.10746633   -47867.46371153
  entropy T*S    EENTRO =        -0.56382401
  eigenvalues    EBANDS =     -4018.17044489
  atomic energy  EATOM  =     51862.92141881
  Solvation  Ediel_sol  =         0.00000000
  ---------------------------------------------------
  free energy    TOTEN  =       244.32056145 eV

  energy without entropy =      244.88438547  energy(sigma->0) =      244.60247346


--------------------------------------------------------------------------------------------------------




--------------------------------------- Iteration      1(   4)  ---------------------------------------


     EDDAV:  cpu time     16.5872: real time     16.7574
       DOS:  cpu time      0.0010: real time      0.0010
    --------------------------------------------
      LOOP:  cpu time     16.5882: real time     16.7584

 eigenvalue-minimisations  :  1056
 total energy-change (2. order) :-0.3498549E+03  (-0.3120298E+03)
 number of electron     550.0000000 magnetization 
 augmentation part      550.0000000 magnetization 

 Free energy of the ion-electron system (eV)
  ---------------------------------------------------
  alpha Z        PSCENC =        31.54067343
  Ewald energy   TEWEN  =    245829.73528956
  -Hartree energ DENC   =   -295215.64056927
  -exchange      EXHF   =         0.00000000
  -V(xc)+E(xc)   XCENC  =      -551.14573697
  PAW double counting   =     50173.10746633   -47867.46371153
  entropy T*S    EENTRO =        -0.37186166
  eigenvalues    EBANDS =     -4368.21733302
  atomic energy  EATOM  =     51862.92141881
  Solvation  Ediel_sol  =         0.00000000
  ---------------------------------------------------
  free energy    TOTEN  =      -105.53436433 eV

  energy without entropy =     -105.16250267  energy(sigma->0) =     -105.34843350


--------------------------------------------------------------------------------------------------------




--------------------------------------- Iteration      1(   5)  ---------------------------------------


     EDDAV:  cpu time     12.9646: real time     13.0959
       DOS:  cpu time      0.0032: real time      0.0032
    CHARGE:  cpu time      4.4597: real time      5.2294
    MIXING:  cpu time      0.0311: real time      0.0314
    --------------------------------------------
      LOOP:  cpu time     17.4587: real time     18.3601

 eigenvalue-minimisations  :   768
 total energy-change (2. order) :-0.1209228E+02  (-0.1188746E+02)
 number of electron     550.0000061 magnetization 
 augmentation part      258.1087080 magnetization 

 Broyden mixing:
  rms(total) = 0.25274E+01    rms(broyden)= 0.25274E+01
  rms(prec ) = 0.25613E+01
  weight for this iteration     100.00

 Free energy of the ion-electron system (eV)
  ---------------------------------------------------
  alpha Z        PSCENC =        31.54067343
  Ewald energy   TEWEN  =    245829.73528956
  -Hartree energ DENC   =   -295215.64056927
  -exchange      EXHF   =         0.00000000
  -V(xc)+E(xc)   XCENC  =      -551.14573697
  PAW double counting   =     50173.10746633   -47867.46371153
  entropy T*S    EENTRO =        -0.37190769
  eigenvalues    EBANDS =     -4380.30956264
  atomic energy  EATOM  =     51862.92141881
  Solvation  Ediel_sol  =         0.00000000
  ---------------------------------------------------
  free energy    TOTEN  =      -117.62663998 eV

  energy without entropy =     -117.25473229  energy(sigma->0) =     -117.44068613


--------------------------------------------------------------------------------------------------------




--------------------------------------- Iteration      1(   6)  ---------------------------------------


    POTLOK:  cpu time      1.1159: real time      1.1675
    SETDIJ:  cpu time      0.0030: real time      0.0031
     EDDAV:  cpu time     15.3723: real time     15.4941
       DOS:  cpu time      0.0010: real time      0.0010
    CHARGE:  cpu time      4.2756: real time      4.2993
    MIXING:  cpu time      0.0341: real time      0.0342
    --------------------------------------------
      LOOP:  cpu time     20.8020: real time     20.9991

 eigenvalue-minimisations  :   960
 total energy-change (2. order) : 0.7955359E+01  (-0.3112441E+01)
 number of electron     550.0000064 magnetization 
 augmentation part      263.6568373 magnetization 

 Broyden mixing:
  rms(total) = 0.16669E+01    rms(broyden)= 0.16669E+01
  rms(prec ) = 0.16706E+01
  weight for this iteration     100.00

 eigenvalues of (default mixing * dielectric matrix)
  average eigenvalue GAMMA=   1.2330
  1.2330

 Free energy of the ion-electron system (eV)
  ---------------------------------------------------
  alpha Z        PSCENC =        31.54067343
  Ewald energy   TEWEN  =    245829.73528956
  -Hartree energ DENC   =   -295010.55150644
  -exchange      EXHF   =         0.00000000
  -V(xc)+E(xc)   XCENC  =      -563.94535031
  PAW double counting   =     51690.45613905   -49419.26856875
  entropy T*S    EENTRO =        -0.37704805
  eigenvalues    EBANDS =     -4530.18232874
  atomic energy  EATOM  =     51862.92141881
  Solvation  Ediel_sol  =         0.00000000
  ---------------------------------------------------
  free energy    TOTEN  =      -109.67128144 eV

  energy without entropy =     -109.29423338  energy(sigma->0) =     -109.48275741


--------------------------------------------------------------------------------------------------------




--------------------------------------- Iteration      1(   7)  ---------------------------------------


    POTLOK:  cpu time      1.0940: real time      1.1410
    SETDIJ:  cpu time      0.0056: real time      0.0057
     EDDAV:  cpu time     15.3664: real time     15.4863
       DOS:  cpu time      0.0034: real time      0.0034
    CHARGE:  cpu time      4.3008: real time      4.3262
    MIXING:  cpu time      0.0343: real time      0.0345
    --------------------------------------------
      LOOP:  cpu time     20.8046: real time     20.9971

 eigenvalue-minimisations  :   960
 total energy-change (2. order) : 0.4325191E+00  (-0.1451556E+00)
 number of electron     550.0000064 magnetization 
 augmentation part      264.1269499 magnetization 

 Broyden mixing:
  rms(total) = 0.85902E+00    rms(broyden)= 0.85902E+00
  rms(prec ) = 0.86002E+00
  weight for this iteration     100.00

 eigenvalues of (default mixing * dielectric matrix)
  average eigenvalue GAMMA=   1.7168
  1.0597  2.3739

 Free energy of the ion-electron system (eV)
  ---------------------------------------------------
  alpha Z        PSCENC =        31.54067343
  Ewald energy   TEWEN  =    245829.73528956
  -Hartree energ DENC   =   -295040.39440743
  -exchange      EXHF   =         0.00000000
  -V(xc)+E(xc)   XCENC  =      -566.22444102
  PAW double counting   =     52731.83838125   -50488.76218144
  entropy T*S    EENTRO =        -0.38586146
  eigenvalues    EBANDS =     -4469.50763404
  atomic energy  EATOM  =     51862.92141881
  Solvation  Ediel_sol  =         0.00000000
  ---------------------------------------------------
  free energy    TOTEN  =      -109.23876234 eV

  energy without entropy =     -108.85290088  energy(sigma->0) =     -109.04583161


--------------------------------------------------------------------------------------------------------




--------------------------------------- Iteration      1(   8)  ---------------------------------------


    POTLOK:  cpu time      1.1096: real time      1.1495
    SETDIJ:  cpu time      0.0135: real time      0.0136
     EDDAV:  cpu time     16.5266: real time     16.6560
       DOS:  cpu time      0.0010: real time      0.0010
    CHARGE:  cpu time      4.3317: real time      4.3570
    MIXING:  cpu time      0.0287: real time      0.0290
    --------------------------------------------
      LOOP:  cpu time     22.0113: real time     22.2062

 eigenvalue-minimisations  :  1056
 total energy-change (2. order) : 0.7921130E-01  (-0.2592612E-01)
 number of electron     550.0000064 magnetization 
 augmentation part      264.1463933 magnetization 

 Broyden mixing:
  rms(total) = 0.95231E-01    rms(broyden)= 0.95227E-01
  rms(prec ) = 0.98585E-01
  weight for this iteration     100.00

 eigenvalues of (default mixing * dielectric matrix)
  average eigenvalue GAMMA=   1.4655
  2.4589  1.0827  0.8548

 Free energy of the ion-electron system (eV)
  ---------------------------------------------------
  alpha Z        PSCENC =        31.54067343
  Ewald energy   TEWEN  =    245829.73528956
  -Hartree energ DENC   =   -295071.81647707
  -exchange      EXHF   =         0.00000000
  -V(xc)+E(xc)   XCENC  =      -567.29456446
  PAW double counting   =     53809.43448234   -51592.18091761
  entropy T*S    EENTRO =        -0.38666695
  eigenvalues    EBANDS =     -4411.11278909
  atomic energy  EATOM  =     51862.92141881
  Solvation  Ediel_sol  =         0.00000000
  ---------------------------------------------------
  free energy    TOTEN  =      -109.15955103 eV

  energy without entropy =     -108.77288408  energy(sigma->0) =     -108.96621756


--------------------------------------------------------------------------------------------------------




--------------------------------------- Iteration      1(   9)  ---------------------------------------


    POTLOK:  cpu time      1.1013: real time      1.1394
    SETDIJ:  cpu time      0.0032: real time      0.0032
     EDDAV:  cpu time     15.3644: real time     15.4725
       DOS:  cpu time      0.0033: real time      0.0033
    CHARGE:  cpu time      4.2700: real time      4.2991
    MIXING:  cpu time      0.0368: real time      0.0370
    --------------------------------------------
      LOOP:  cpu time     20.7789: real time     20.9544

 eigenvalue-minimisations  :   960
 total energy-change (2. order) : 0.8322071E-02  (-0.1066415E-01)
 number of electron     550.0000064 magnetization 
 augmentation part      264.1479720 magnetization 

 Broyden mixing:
  rms(total) = 0.30845E-01    rms(broyden)= 0.30844E-01
  rms(prec ) = 0.33640E-01
  weight for this iteration     100.00

 eigenvalues of (default mixing * dielectric matrix)
  average eigenvalue GAMMA=   1.4193
  2.4841  1.3953  1.0352  0.7624

 Free energy of the ion-electron system (eV)
  ---------------------------------------------------
  alpha Z        PSCENC =        31.54067343
  Ewald energy   TEWEN  =    245829.73528956
  -Hartree energ DENC   =   -295080.91723477
  -exchange      EXHF   =         0.00000000
  -V(xc)+E(xc)   XCENC  =      -567.26604432
  PAW double counting   =     53876.43449458   -51660.25467566
  entropy T*S    EENTRO =        -0.38771476
  eigenvalues    EBANDS =     -4400.95743583
  atomic energy  EATOM  =     51862.92141881
  Solvation  Ediel_sol  =         0.00000000
  ---------------------------------------------------
  free energy    TOTEN  =      -109.15122896 eV

  energy without entropy =     -108.76351420  energy(sigma->0) =     -108.95737158


--------------------------------------------------------------------------------------------------------




--------------------------------------- Iteration      1(  10)  ---------------------------------------


    POTLOK:  cpu time      1.1059: real time      1.1449
    SETDIJ:  cpu time      0.0048: real time      0.0049
     EDDAV:  cpu time     16.6690: real time     16.7979
       DOS:  cpu time      0.0011: real time      0.0011
    CHARGE:  cpu time      4.2770: real time      4.3012
    MIXING:  cpu time      0.0263: real time      0.0265
    --------------------------------------------
      LOOP:  cpu time     22.0841: real time     22.2765

 eigenvalue-minimisations  :  1056
 total energy-change (2. order) : 0.8357268E-03  (-0.1932246E-02)
 number of electron     550.0000064 magnetization 
 augmentation part      264.1457251 magnetization 

 Broyden mixing:
  rms(total) = 0.15562E-01    rms(broyden)= 0.15561E-01
  rms(prec ) = 0.18048E-01
  weight for this iteration     100.00

 eigenvalues of (default mixing * dielectric matrix)
  average eigenvalue GAMMA=   1.3648
  2.4882  1.5934  1.0502  0.9961  0.6960

 Free energy of the ion-electron system (eV)
  ---------------------------------------------------
  alpha Z        PSCENC =        31.54067343
  Ewald energy   TEWEN  =    245829.73528956
  -Hartree energ DENC   =   -295091.86962652
  -exchange      EXHF   =         0.00000000
  -V(xc)+E(xc)   XCENC  =      -567.18401064
  PAW double counting   =     53902.50474655   -51686.31250373
  entropy T*S    EENTRO =        -0.38681358
  eigenvalues    EBANDS =     -4390.09956711
  atomic energy  EATOM  =     51862.92141881
  Solvation  Ediel_sol  =         0.00000000
  ---------------------------------------------------
  free energy    TOTEN  =      -109.15039324 eV

  energy without entropy =     -108.76357965  energy(sigma->0) =     -108.95698644


--------------------------------------------------------------------------------------------------------




--------------------------------------- Iteration      1(  11)  ---------------------------------------


    POTLOK:  cpu time      1.1065: real time      1.1454
    SETDIJ:  cpu time      0.0050: real time      0.0051
     EDDAV:  cpu time     16.6037: real time     16.7740
       DOS:  cpu time      0.0010: real time      0.0010
    CHARGE:  cpu time      4.2190: real time      4.2454
    MIXING:  cpu time      0.0304: real time      0.0307
    --------------------------------------------
      LOOP:  cpu time     21.9657: real time     22.2016

 eigenvalue-minimisations  :  1056
 total energy-change (2. order) :-0.6192139E-03  (-0.2701516E-03)
 number of electron     550.0000064 magnetization 
 augmentation part      264.1451723 magnetization 

 Broyden mixing:
  rms(total) = 0.95000E-02    rms(broyden)= 0.94998E-02
  rms(prec ) = 0.11834E-01
  weight for this iteration     100.00

 eigenvalues of (default mixing * dielectric matrix)
  average eigenvalue GAMMA=   1.4388
  2.5319  2.0938  1.3787  1.0415  0.9359  0.6509

 Free energy of the ion-electron system (eV)
  ---------------------------------------------------
  alpha Z        PSCENC =        31.54067343
  Ewald energy   TEWEN  =    245829.73528956
  -Hartree energ DENC   =   -295102.26076597
  -exchange      EXHF   =         0.00000000
  -V(xc)+E(xc)   XCENC  =      -567.12937919
  PAW double counting   =     53914.82616510   -51698.48468279
  entropy T*S    EENTRO =        -0.38700789
  eigenvalues    EBANDS =     -4379.91272351
  atomic energy  EATOM  =     51862.92141881
  Solvation  Ediel_sol  =         0.00000000
  ---------------------------------------------------
  free energy    TOTEN  =      -109.15101245 eV

  energy without entropy =     -108.76400456  energy(sigma->0) =     -108.95750851


--------------------------------------------------------------------------------------------------------




--------------------------------------- Iteration      1(  12)  ---------------------------------------


    POTLOK:  cpu time      1.1191: real time      1.1577
    SETDIJ:  cpu time      0.0039: real time      0.0040
     EDDAV:  cpu time     17.8404: real time     17.9913
       DOS:  cpu time      0.0010: real time      0.0010
    CHARGE:  cpu time      4.2536: real time      4.2789
    MIXING:  cpu time      0.0341: real time      0.0345
    --------------------------------------------
      LOOP:  cpu time     23.2522: real time     23.4675

 eigenvalue-minimisations  :  1152
 total energy-change (2. order) :-0.1820946E-02  (-0.1189767E-03)
 number of electron     550.0000064 magnetization 
 augmentation part      264.1455401 magnetization 

 Broyden mixing:
  rms(total) = 0.52524E-02    rms(broyden)= 0.52524E-02
  rms(prec ) = 0.70435E-02
  weight for this iteration     100.00

 eigenvalues of (default mixing * dielectric matrix)
  average eigenvalue GAMMA=   1.4852
  3.0151  2.4802  1.1432  1.1432  0.9773  0.9773  0.6599

 Free energy of the ion-electron system (eV)
  ---------------------------------------------------
  alpha Z        PSCENC =        31.54067343
  Ewald energy   TEWEN  =    245829.73528956
  -Hartree energ DENC   =   -295116.59410176
  -exchange      EXHF   =         0.00000000
  -V(xc)+E(xc)   XCENC  =      -567.06809753
  PAW double counting   =     53924.85141580   -51708.36614959
  entropy T*S    EENTRO =        -0.38703775
  eigenvalues    EBANDS =     -4365.78624437
  atomic energy  EATOM  =     51862.92141881
  Solvation  Ediel_sol  =         0.00000000
  ---------------------------------------------------
  free energy    TOTEN  =      -109.15283340 eV

  energy without entropy =     -108.76579564  energy(sigma->0) =     -108.95931452


--------------------------------------------------------------------------------------------------------




--------------------------------------- Iteration      1(  13)  ---------------------------------------


    POTLOK:  cpu time      1.1016: real time      1.1383
    SETDIJ:  cpu time      0.0031: real time      0.0031
     EDDAV:  cpu time     13.1913: real time     13.2946
       DOS:  cpu time      0.0036: real time      0.0037
    CHARGE:  cpu time      4.2074: real time      4.2317
    MIXING:  cpu time      0.0240: real time      0.0242
    --------------------------------------------
      LOOP:  cpu time     18.5310: real time     18.6955

 eigenvalue-minimisations  :   768
 total energy-change (2. order) :-0.2268573E-02  (-0.5149071E-04)
 number of electron     550.0000064 magnetization 
 augmentation part      264.1435636 magnetization 

 Broyden mixing:
  rms(total) = 0.35070E-02    rms(broyden)= 0.35069E-02
  rms(prec ) = 0.46409E-02
  weight for this iteration     100.00

 eigenvalues of (default mixing * dielectric matrix)
  average eigenvalue GAMMA=   1.5744
  3.4772  2.5530  1.7068  1.3053  0.6790  1.0358  0.9191  0.9191

 Free energy of the ion-electron system (eV)
  ---------------------------------------------------
  alpha Z        PSCENC =        31.54067343
  Ewald energy   TEWEN  =    245829.73528956
  -Hartree energ DENC   =   -295127.40654631
  -exchange      EXHF   =         0.00000000
  -V(xc)+E(xc)   XCENC  =      -567.01602870
  PAW double counting   =     53926.24431461   -51709.64068708
  entropy T*S    EENTRO =        -0.38696786
  eigenvalues    EBANDS =     -4355.14656843
  atomic energy  EATOM  =     51862.92141881
  Solvation  Ediel_sol  =         0.00000000
  ---------------------------------------------------
  free energy    TOTEN  =      -109.15510197 eV

  energy without entropy =     -108.76813411  energy(sigma->0) =     -108.96161804


--------------------------------------------------------------------------------------------------------




--------------------------------------- Iteration      1(  14)  ---------------------------------------


    POTLOK:  cpu time      1.1075: real time      1.1646
    SETDIJ:  cpu time      0.0061: real time      0.0062
     EDDAV:  cpu time     15.3601: real time     15.4867
       DOS:  cpu time      0.0011: real time      0.0011
    CHARGE:  cpu time      4.1777: real time      4.2011
    MIXING:  cpu time      0.0257: real time      0.0259
    --------------------------------------------
      LOOP:  cpu time     20.6783: real time     20.8856

 eigenvalue-minimisations  :   960
 total energy-change (2. order) :-0.3249725E-02  (-0.4195278E-04)
 number of electron     550.0000064 magnetization 
 augmentation part      264.1417826 magnetization 

 Broyden mixing:
  rms(total) = 0.26369E-02    rms(broyden)= 0.26368E-02
  rms(prec ) = 0.31506E-02
  weight for this iteration     100.00

 eigenvalues of (default mixing * dielectric matrix)
  average eigenvalue GAMMA=   1.6319
  4.1978  2.4839  2.1370  1.2742  1.0925  0.9890  0.9890  0.6943  0.8291

 Free energy of the ion-electron system (eV)
  ---------------------------------------------------
  alpha Z        PSCENC =        31.54067343
  Ewald energy   TEWEN  =    245829.73528956
  -Hartree energ DENC   =   -295136.49315459
  -exchange      EXHF   =         0.00000000
  -V(xc)+E(xc)   XCENC  =      -566.97894958
  PAW double counting   =     53919.21650946   -51702.56958255
  entropy T*S    EENTRO =        -0.38698334
  eigenvalues    EBANDS =     -4346.14357290
  atomic energy  EATOM  =     51862.92141881
  Solvation  Ediel_sol  =         0.00000000
  ---------------------------------------------------
  free energy    TOTEN  =      -109.15835169 eV

  energy without entropy =     -108.77136836  energy(sigma->0) =     -108.96486003


--------------------------------------------------------------------------------------------------------




--------------------------------------- Iteration      1(  15)  ---------------------------------------


    POTLOK:  cpu time      1.0976: real time      1.1043
    SETDIJ:  cpu time      0.0056: real time      0.0056
     EDDAV:  cpu time     15.2571: real time     15.3564
       DOS:  cpu time      0.0031: real time      0.0031
    CHARGE:  cpu time      4.1571: real time      4.1794
    MIXING:  cpu time      0.0227: real time      0.0228
    --------------------------------------------
      LOOP:  cpu time     20.5431: real time     20.6716

 eigenvalue-minimisations  :   960
 total energy-change (2. order) :-0.1791855E-02  (-0.1313994E-04)
 number of electron     550.0000064 magnetization 
 augmentation part      264.1413081 magnetization 

 Broyden mixing:
  rms(total) = 0.12872E-02    rms(broyden)= 0.12872E-02
  rms(prec ) = 0.17074E-02
  weight for this iteration     100.00

 eigenvalues of (default mixing * dielectric matrix)
  average eigenvalue GAMMA=   1.7678
  5.3730  2.5983  2.4777  1.3798  1.3798  1.0416  0.9625  0.9625  0.6869  0.8161

 Free energy of the ion-electron system (eV)
  ---------------------------------------------------
  alpha Z        PSCENC =        31.54067343
  Ewald energy   TEWEN  =    245829.73528956
  -Hartree energ DENC   =   -295140.98747671
  -exchange      EXHF   =         0.00000000
  -V(xc)+E(xc)   XCENC  =      -566.96532516
  PAW double counting   =     53917.48931817   -51700.86349454
  entropy T*S    EENTRO =        -0.38700753
  eigenvalues    EBANDS =     -4341.64353958
  atomic energy  EATOM  =     51862.92141881
  Solvation  Ediel_sol  =         0.00000000
  ---------------------------------------------------
  free energy    TOTEN  =      -109.16014355 eV

  energy without entropy =     -108.77313601  energy(sigma->0) =     -108.96663978


--------------------------------------------------------------------------------------------------------




--------------------------------------- Iteration      1(  16)  ---------------------------------------


    POTLOK:  cpu time      1.0947: real time      1.1021
    SETDIJ:  cpu time      0.0038: real time      0.0038
     EDDAV:  cpu time     15.3479: real time     15.4521
       DOS:  cpu time      0.0010: real time      0.0011
    CHARGE:  cpu time      4.2044: real time      4.2291
    MIXING:  cpu time      0.0244: real time      0.0246
    --------------------------------------------
      LOOP:  cpu time     20.6763: real time     20.8128

 eigenvalue-minimisations  :   960
 total energy-change (2. order) :-0.1833368E-02  (-0.1428695E-04)
 number of electron     550.0000064 magnetization 
 augmentation part      264.1410753 magnetization 

 Broyden mixing:
  rms(total) = 0.88976E-03    rms(broyden)= 0.88974E-03
  rms(prec ) = 0.10829E-02
  weight for this iteration     100.00

 eigenvalues of (default mixing * dielectric matrix)
  average eigenvalue GAMMA=   1.7867
  5.7419  2.8986  2.5044  1.7479  0.6825  1.0388  1.0388  1.0782  0.9889  0.9889
  0.9450

 Free energy of the ion-electron system (eV)
  ---------------------------------------------------
  alpha Z        PSCENC =        31.54067343
  Ewald energy   TEWEN  =    245829.73528956
  -Hartree energ DENC   =   -295144.92671894
  -exchange      EXHF   =         0.00000000
  -V(xc)+E(xc)   XCENC  =      -566.95513773
  PAW double counting   =     53914.95942539   -51698.34262001
  entropy T*S    EENTRO =        -0.38699064
  eigenvalues    EBANDS =     -4337.70731679
  atomic energy  EATOM  =     51862.92141881
  Solvation  Ediel_sol  =         0.00000000
  ---------------------------------------------------
  free energy    TOTEN  =      -109.16197692 eV

  energy without entropy =     -108.77498628  energy(sigma->0) =     -108.96848160


--------------------------------------------------------------------------------------------------------




--------------------------------------- Iteration      1(  17)  ---------------------------------------


    POTLOK:  cpu time      1.1049: real time      1.1352
    SETDIJ:  cpu time      0.0055: real time      0.0057
     EDDAV:  cpu time     12.9833: real time     13.1167
       DOS:  cpu time      0.0032: real time      0.0033
    CHARGE:  cpu time      4.1403: real time      4.1693
    MIXING:  cpu time      0.0287: real time      0.0290
    --------------------------------------------
      LOOP:  cpu time     18.2659: real time     18.4592

 eigenvalue-minimisations  :   768
 total energy-change (2. order) :-0.1034589E-02  (-0.3282547E-05)
 number of electron     550.0000064 magnetization 
 augmentation part      264.1407497 magnetization 

 Broyden mixing:
  rms(total) = 0.49018E-03    rms(broyden)= 0.49016E-03
  rms(prec ) = 0.62610E-03
  weight for this iteration     100.00

 eigenvalues of (default mixing * dielectric matrix)
  average eigenvalue GAMMA=   1.8680
  6.4881  3.3354  2.4672  2.0321  1.5385  1.0163  1.0163  0.6812  1.0985  1.0280
  0.8574  0.8574

 Free energy of the ion-electron system (eV)
  ---------------------------------------------------
  alpha Z        PSCENC =        31.54067343
  Ewald energy   TEWEN  =    245829.73528956
  -Hartree energ DENC   =   -295146.25253220
  -exchange      EXHF   =         0.00000000
  -V(xc)+E(xc)   XCENC  =      -566.95330285
  PAW double counting   =     53914.70728010   -51698.09588303
  entropy T*S    EENTRO =        -0.38699041
  eigenvalues    EBANDS =     -4336.37896491
  atomic energy  EATOM  =     51862.92141881
  Solvation  Ediel_sol  =         0.00000000
  ---------------------------------------------------
  free energy    TOTEN  =      -109.16301151 eV

  energy without entropy =     -108.77602110  energy(sigma->0) =     -108.96951630


--------------------------------------------------------------------------------------------------------




--------------------------------------- Iteration      1(  18)  ---------------------------------------


    POTLOK:  cpu time      1.1036: real time      1.1445
    SETDIJ:  cpu time      0.1396: real time      0.1403
     EDDAV:  cpu time     14.3888: real time     14.5234
       DOS:  cpu time      0.0010: real time      0.0010
    CHARGE:  cpu time      4.3778: real time      4.4020
    MIXING:  cpu time      0.0258: real time      0.0260
    --------------------------------------------
      LOOP:  cpu time     20.0366: real time     20.2371

 eigenvalue-minimisations  :   864
 total energy-change (2. order) :-0.7625228E-03  (-0.2066742E-05)
 number of electron     550.0000064 magnetization 
 augmentation part      264.1407279 magnetization 

 Broyden mixing:
  rms(total) = 0.27144E-03    rms(broyden)= 0.27144E-03
  rms(prec ) = 0.35327E-03
  weight for this iteration     100.00

 eigenvalues of (default mixing * dielectric matrix)
  average eigenvalue GAMMA=   1.9417
  6.9282  3.9258  2.6050  2.4451  1.4413  1.4413  1.0217  1.0217  1.0511  0.6817
  0.9149  0.8820  0.8820

 Free energy of the ion-electron system (eV)
  ---------------------------------------------------
  alpha Z        PSCENC =        31.54067343
  Ewald energy   TEWEN  =    245829.73528956
  -Hartree energ DENC   =   -295147.26011061
  -exchange      EXHF   =         0.00000000
  -V(xc)+E(xc)   XCENC  =      -566.95282616
  PAW double counting   =     53914.97152830   -51698.35796255
  entropy T*S    EENTRO =        -0.38698446
  eigenvalues    EBANDS =     -4335.37480036
  atomic energy  EATOM  =     51862.92141881
  Solvation  Ediel_sol  =         0.00000000
  ---------------------------------------------------
  free energy    TOTEN  =      -109.16377403 eV

  energy without entropy =     -108.77678957  energy(sigma->0) =     -108.97028180


--------------------------------------------------------------------------------------------------------




--------------------------------------- Iteration      1(  19)  ---------------------------------------


    POTLOK:  cpu time      1.1155: real time      1.1683
    SETDIJ:  cpu time      0.0038: real time      0.0039
     EDDAV:  cpu time     13.3056: real time     13.3877
       DOS:  cpu time      0.0009: real time      0.0010
    CHARGE:  cpu time      4.3549: real time      4.3798
    MIXING:  cpu time      0.0295: real time      0.0297
    --------------------------------------------
      LOOP:  cpu time     18.8102: real time     18.9702

 eigenvalue-minimisations  :   768
 total energy-change (2. order) :-0.4595013E-03  (-0.7757598E-06)
 number of electron     550.0000064 magnetization 
 augmentation part      264.1407904 magnetization 

 Broyden mixing:
  rms(total) = 0.16366E-03    rms(broyden)= 0.16366E-03
  rms(prec ) = 0.20739E-03
  weight for this iteration     100.00

 eigenvalues of (default mixing * dielectric matrix)
  average eigenvalue GAMMA=   1.9723
  7.3717  4.3495  2.7486  2.5051  1.7863  1.3815  1.0200  1.0200  1.0690  1.0690
  0.6823  0.9017  0.9017  0.8061

 Free energy of the ion-electron system (eV)
  ---------------------------------------------------
  alpha Z        PSCENC =        31.54067343
  Ewald energy   TEWEN  =    245829.73528956
  -Hartree energ DENC   =   -295147.68763698
  -exchange      EXHF   =         0.00000000
  -V(xc)+E(xc)   XCENC  =      -566.95332909
  PAW double counting   =     53915.47538592   -51698.86087372
  entropy T*S    EENTRO =        -0.38698566
  eigenvalues    EBANDS =     -4334.94817580
  atomic energy  EATOM  =     51862.92141881
  Solvation  Ediel_sol  =         0.00000000
  ---------------------------------------------------
  free energy    TOTEN  =      -109.16423353 eV

  energy without entropy =     -108.77724787  energy(sigma->0) =     -108.97074070


--------------------------------------------------------------------------------------------------------




--------------------------------------- Iteration      1(  20)  ---------------------------------------


    POTLOK:  cpu time      1.1218: real time      1.1576
    SETDIJ:  cpu time      0.0040: real time      0.0040
     EDDAV:  cpu time     13.3237: real time     13.4069
       DOS:  cpu time      0.0010: real time      0.0010
    CHARGE:  cpu time      4.2144: real time      4.2371
    MIXING:  cpu time      0.0366: real time      0.0369
    --------------------------------------------
      LOOP:  cpu time     18.7016: real time     18.8435

 eigenvalue-minimisations  :   768
 total energy-change (2. order) :-0.2097637E-03  (-0.2033643E-06)
 number of electron     550.0000064 magnetization 
 augmentation part      264.1408134 magnetization 

 Broyden mixing:
  rms(total) = 0.95422E-04    rms(broyden)= 0.95421E-04
  rms(prec ) = 0.12158E-03
  weight for this iteration     100.00

 eigenvalues of (default mixing * dielectric matrix)
  average eigenvalue GAMMA=   2.0229
  7.6797  4.9421  2.9665  2.4426  2.2264  1.4445  1.2870  0.9994  0.9994  0.6823
  1.0715  0.9176  0.9176  0.9361  0.8310

 Free energy of the ion-electron system (eV)
  ---------------------------------------------------
  alpha Z        PSCENC =        31.54067343
  Ewald energy   TEWEN  =    245829.73528956
  -Hartree energ DENC   =   -295147.90555809
  -exchange      EXHF   =         0.00000000
  -V(xc)+E(xc)   XCENC  =      -566.95332698
  PAW double counting   =     53915.46449443   -51698.84718988
  entropy T*S    EENTRO =        -0.38698795
  eigenvalues    EBANDS =     -4334.73325662
  atomic energy  EATOM  =     51862.92141881
  Solvation  Ediel_sol  =         0.00000000
  ---------------------------------------------------
  free energy    TOTEN  =      -109.16444329 eV

  energy without entropy =     -108.77745535  energy(sigma->0) =     -108.97094932


--------------------------------------------------------------------------------------------------------




--------------------------------------- Iteration      1(  21)  ---------------------------------------


    POTLOK:  cpu time      1.2697: real time      1.3103
    SETDIJ:  cpu time      0.0057: real time      0.0060
     EDDAV:  cpu time     13.3768: real time     13.4876
       DOS:  cpu time      0.0011: real time      0.0011
    CHARGE:  cpu time      4.2766: real time      4.2979
    MIXING:  cpu time      0.0385: real time      0.0400
    --------------------------------------------
      LOOP:  cpu time     18.9683: real time     19.1429

 eigenvalue-minimisations  :   768
 total energy-change (2. order) :-0.1298460E-03  (-0.5197118E-07)
 number of electron     550.0000064 magnetization 
 augmentation part      264.1408432 magnetization 

 Broyden mixing:
  rms(total) = 0.54522E-04    rms(broyden)= 0.54522E-04
  rms(prec ) = 0.69840E-04
  weight for this iteration     100.00

 eigenvalues of (default mixing * dielectric matrix)
  average eigenvalue GAMMA=   2.0954
  7.9189  5.5891  3.2496  2.7012  2.4304  1.6464  1.5737  0.9983  0.9983  0.6823
  1.0939  1.0711  0.9240  0.9240  0.8900  0.8351

 Free energy of the ion-electron system (eV)
  ---------------------------------------------------
  alpha Z        PSCENC =        31.54067343
  Ewald energy   TEWEN  =    245829.73528956
  -Hartree energ DENC   =   -295148.01484164
  -exchange      EXHF   =         0.00000000
  -V(xc)+E(xc)   XCENC  =      -566.95346243
  PAW double counting   =     53915.35317849   -51698.73572070
  entropy T*S    EENTRO =        -0.38699005
  eigenvalues    EBANDS =     -4334.62411861
  atomic energy  EATOM  =     51862.92141881
  Solvation  Ediel_sol  =         0.00000000
  ---------------------------------------------------
  free energy    TOTEN  =      -109.16457314 eV

  energy without entropy =     -108.77758309  energy(sigma->0) =     -108.97107811


--------------------------------------------------------------------------------------------------------




--------------------------------------- Iteration      1(  22)  ---------------------------------------


    POTLOK:  cpu time      1.1255: real time      1.1555
    SETDIJ:  cpu time      0.0054: real time      0.0054
     EDDAV:  cpu time     13.1638: real time     13.2783
       DOS:  cpu time      0.0010: real time      0.0010
    CHARGE:  cpu time      4.2412: real time      4.2651
    MIXING:  cpu time      0.0475: real time      0.0477
    --------------------------------------------
      LOOP:  cpu time     18.5843: real time     18.7530

 eigenvalue-minimisations  :   768
 total energy-change (2. order) :-0.7927223E-04  ( 0.4337973E-07)
 number of electron     550.0000064 magnetization 
 augmentation part      264.1408515 magnetization 

 Broyden mixing:
  rms(total) = 0.28774E-04    rms(broyden)= 0.28774E-04
  rms(prec ) = 0.36824E-04
  weight for this iteration     100.00

 eigenvalues of (default mixing * dielectric matrix)
  average eigenvalue GAMMA=   2.1082
  8.0137  5.9700  3.4824  2.6486  2.4574  2.1337  1.4006  1.4006  1.0061  1.0061
  0.6823  1.0439  1.0439  0.9208  0.9208  0.8853  0.8237

 Free energy of the ion-electron system (eV)
  ---------------------------------------------------
  alpha Z        PSCENC =        31.54067343
  Ewald energy   TEWEN  =    245829.73528956
  -Hartree energ DENC   =   -295148.07197574
  -exchange      EXHF   =         0.00000000
  -V(xc)+E(xc)   XCENC  =      -566.95350905
  PAW double counting   =     53915.22270255   -51698.60473525
  entropy T*S    EENTRO =        -0.38698979
  eigenvalues    EBANDS =     -4334.56752693
  atomic energy  EATOM  =     51862.92141881
  Solvation  Ediel_sol  =         0.00000000
  ---------------------------------------------------
  free energy    TOTEN  =      -109.16465241 eV

  energy without entropy =     -108.77766262  energy(sigma->0) =     -108.97115752


--------------------------------------------------------------------------------------------------------




--------------------------------------- Iteration      1(  23)  ---------------------------------------


    POTLOK:  cpu time      1.1147: real time      1.1403
    SETDIJ:  cpu time      0.0031: real time      0.0031
     EDDAV:  cpu time     13.2690: real time     13.3807
       DOS:  cpu time      0.0010: real time      0.0010
    CHARGE:  cpu time      4.2558: real time      4.2798
    MIXING:  cpu time      0.0277: real time      0.0279
    --------------------------------------------
      LOOP:  cpu time     18.6713: real time     18.8328

 eigenvalue-minimisations  :   768
 total energy-change (2. order) :-0.3138818E-04  ( 0.1539947E-06)
 number of electron     550.0000064 magnetization 
 augmentation part      264.1408634 magnetization 

 Broyden mixing:
  rms(total) = 0.19613E-04    rms(broyden)= 0.19613E-04
  rms(prec ) = 0.24283E-04
  weight for this iteration     100.00

 eigenvalues of (default mixing * dielectric matrix)
  average eigenvalue GAMMA=   2.1462
  8.1449  6.4770  3.9173  2.9610  2.4833  2.1523  1.7416  1.2654  1.2654  1.0012
  1.0012  1.0944  0.6823  0.9814  0.9013  0.9013  0.8303  0.8303

 Free energy of the ion-electron system (eV)
  ---------------------------------------------------
  alpha Z        PSCENC =        31.54067343
  Ewald energy   TEWEN  =    245829.73528956
  -Hartree energ DENC   =   -295148.09284419
  -exchange      EXHF   =         0.00000000
  -V(xc)+E(xc)   XCENC  =      -566.95354849
  PAW double counting   =     53915.23644430   -51698.61862046
  entropy T*S    EENTRO =        -0.38698995
  eigenvalues    EBANDS =     -4334.54650682
  atomic energy  EATOM  =     51862.92141881
  Solvation  Ediel_sol  =         0.00000000
  ---------------------------------------------------
  free energy    TOTEN  =      -109.16468380 eV

  energy without entropy =     -108.77769385  energy(sigma->0) =     -108.97118883


--------------------------------------------------------------------------------------------------------




--------------------------------------- Iteration      1(  24)  ---------------------------------------


    POTLOK:  cpu time      1.2390: real time      1.2871
    SETDIJ:  cpu time      0.0029: real time      0.0029
     EDDAV:  cpu time     13.2463: real time     13.3442
       DOS:  cpu time      0.0010: real time      0.0010
    CHARGE:  cpu time      4.4052: real time      4.4590
    MIXING:  cpu time      0.0369: real time      0.0380
    --------------------------------------------
      LOOP:  cpu time     18.9312: real time     19.1322

 eigenvalue-minimisations  :   768
 total energy-change (2. order) :-0.1736045E-04  ( 0.1677934E-06)
 number of electron     550.0000064 magnetization 
 augmentation part      264.1408680 magnetization 

 Broyden mixing:
  rms(total) = 0.11902E-04    rms(broyden)= 0.11902E-04
  rms(prec ) = 0.14530E-04
  weight for this iteration     100.00

 eigenvalues of (default mixing * dielectric matrix)
  average eigenvalue GAMMA=   2.1771
  8.1679  6.8298  4.2480  3.0584  2.5170  2.5170  1.8659  1.5471  0.9961  0.9961
  1.1836  1.1836  1.1472  0.6823  0.9962  0.8978  0.8978  0.8219  0.8116

[...]
    382       0.5947      0.00000
    383       0.5947      0.00000
    384       0.6051      0.00000


--------------------------------------------------------------------------------------------------------


 soft charge-density along one line, spin component           1
         0         1         2         3         4         5         6         7         8         9
 total charge-density along one line
 
 pseudopotential strength for first ion, spin component:           1
-10.758  -0.002   0.003  -0.000   0.000 -10.714  -0.002   0.003
 -0.002 -10.762  -0.000  -0.002   0.000  -0.002 -10.717  -0.000
  0.003  -0.000 -10.749  -0.002  -0.000   0.003  -0.000 -10.704
 -0.000  -0.002  -0.002 -10.758  -0.002  -0.000  -0.002  -0.002
  0.000   0.000  -0.000  -0.002 -10.748   0.000   0.000  -0.000
-10.714  -0.002   0.003  -0.000   0.000 -10.646  -0.002   0.003
 -0.002 -10.717  -0.000  -0.002   0.000  -0.002 -10.649  -0.000
  0.003  -0.000 -10.704  -0.002  -0.000   0.003  -0.000 -10.637
 -0.000  -0.002  -0.002 -10.714  -0.002  -0.000  -0.002  -0.002
  0.000   0.000  -0.000  -0.002 -10.704   0.000   0.000  -0.000
  0.001   0.000   0.000   0.001  -0.001   0.001   0.000   0.000
  0.002   0.000   0.001   0.002  -0.001   0.002   0.000   0.001
 -0.001   0.001  -0.001  -0.000  -0.001  -0.001   0.001  -0.001
 -0.000   0.001   0.001  -0.001  -0.000  -0.000   0.001   0.001
  0.001  -0.000   0.001   0.001  -0.001   0.001  -0.000   0.001
 -0.001   0.001  -0.001  -0.000  -0.001  -0.001   0.001  -0.001
 -0.000   0.001   0.002  -0.001  -0.000  -0.000   0.001   0.002
  0.001  -0.000   0.001   0.001  -0.001   0.001  -0.000   0.001
 total augmentation occupancy for first ion, spin component:           1
  3.559  -0.022   0.070  -0.015   0.020  -1.583   0.020  -0.054   0.015  -0.015  -0.057  -0.002   0.001  -0.007  -0.017  -0.001
 -0.022   3.386  -0.005  -0.022   0.009   0.020  -1.441   0.003   0.020  -0.005  -0.007  -0.004  -0.005  -0.005  -0.001   0.001
  0.070  -0.005   3.521  -0.052   0.027  -0.054   0.003  -1.409   0.040  -0.021  -0.019  -0.002   0.005   0.001   0.009  -0.001
 -0.015  -0.022  -0.052   3.559  -0.050   0.015   0.020   0.040  -1.583   0.039  -0.057  -0.002  -0.007   0.001  -0.017   0.000
  0.020   0.009   0.027  -0.050   3.490  -0.015  -0.005  -0.021   0.039  -1.385   0.033   0.004  -0.004  -0.006  -0.015  -0.001
 -1.583   0.020  -0.054   0.015  -0.015   1.553  -0.018   0.041  -0.013   0.011   0.040   0.007   0.002   0.006   0.012   0.000
  0.020  -1.441   0.003   0.020  -0.005  -0.018   1.437  -0.001  -0.018   0.002   0.007   0.003   0.002   0.002   0.001  -0.000
 -0.054   0.003  -1.409   0.040  -0.021   0.041  -0.001   1.269  -0.030   0.016   0.013   0.003  -0.004  -0.001  -0.008   0.000
  0.015   0.020   0.040  -1.583   0.039  -0.013  -0.018  -0.030   1.553  -0.030   0.040   0.007   0.006   0.002   0.012  -0.000
 -0.015  -0.005  -0.021   0.039  -1.385   0.011   0.002   0.016  -0.030   1.250  -0.023  -0.005   0.004   0.005   0.014  -0.000
 -0.057  -0.007  -0.019  -0.057   0.033   0.040   0.007   0.013   0.040  -0.023   2.164  -0.410  -0.006  -0.006   0.006   0.000
 -0.002  -0.004  -0.002  -0.002   0.004   0.007   0.003   0.003   0.007  -0.005  -0.410   0.098  -0.001  -0.001  -0.001   0.000
  0.001  -0.005   0.005  -0.007  -0.004   0.002   0.002  -0.004   0.006   0.004  -0.006  -0.001   0.162   0.002   0.001  -0.010
 -0.007  -0.005   0.001   0.001  -0.006   0.006   0.002  -0.001   0.002   0.005  -0.006  -0.001   0.002   0.162   0.001  -0.000
 -0.017  -0.001   0.009  -0.017  -0.015   0.012   0.001  -0.008   0.012   0.014   0.006  -0.001   0.001   0.001   0.161  -0.000
 -0.001   0.001  -0.001   0.000  -0.001   0.000  -0.000   0.000  -0.000  -0.000   0.000   0.000  -0.010  -0.000  -0.000   0.001
  0.000   0.001   0.001  -0.001   0.000  -0.000  -0.000  -0.000   0.000  -0.000   0.000   0.000  -0.000  -0.010  -0.000   0.000
  0.001  -0.000   0.000   0.001  -0.000  -0.000  -0.000   0.000  -0.000  -0.000  -0.001   0.000  -0.000  -0.000  -0.010   0.000


------------------------ aborting loop because EDIFF is reached ----------------------------------------


    CHARGE:  cpu time      4.3249: real time      4.3545
    FORLOC:  cpu time      0.1348: real time      0.1361
    FORNL :  cpu time      3.5740: real time      3.6012
    STRESS:  cpu time     10.1388: real time     10.2200
    FORCOR:  cpu time      0.9753: real time      0.9842
    FORHAR:  cpu time      0.3441: real time      0.3466
    MIXING:  cpu time      0.1408: real time      0.1415
    OFIELD:  cpu time      0.0001: real time      0.0001

  FORCE on cell =-STRESS in cart. coord.  units (eV):
  Direction    XX          YY          ZZ          XY          YZ          ZX
  --------------------------------------------------------------------------------------
  Alpha Z    31.54067    31.54067    31.54067
  Ewald   81943.21799 81943.21799 81943.21799 13485.86538 13485.86538 13485.86538
  Hartree 98382.71237 98382.71237 98382.71237 12743.96831 12743.96831 12743.96831
  E(xc)   -2898.28940 -2898.28940 -2898.28940     1.17900     1.17900     1.17900
  Local  ************************************-26223.48054-26223.48054-26223.48054
  n-local  -517.13378  -517.13378  -517.13378    -0.12316    -0.12316    -0.12316
  augment  4599.07673  4599.07673  4599.07673    -2.32097    -2.32097    -2.32098
  Kinetic  6834.53819  6834.53819  6834.53819    -7.07868    -7.07868    -7.07868
  Fock        0.00000     0.00000     0.00000     0.00000     0.00000     0.00000
  -------------------------------------------------------------------------------------
  Total     -12.87882   -12.87882   -12.87882    -1.99067    -1.99067    -1.99067
  in kB      -0.30606    -0.30606    -0.30606    -0.04731    -0.04731    -0.04731
  external pressure =       -0.31 kB  Pullay stress =        0.00 kB


 VOLUME and BASIS-vectors are now :
 -----------------------------------------------------------------------------
  energy-cutoff  :      400.00
  volume of cell :    67419.14
      direct lattice vectors                 reciprocal lattice vectors
    40.700000000  0.000000000  0.000000000     0.024570025  0.000000000  0.000000000
     0.000000000 40.700000000  0.000000000     0.000000000  0.024570025  0.000000000
     0.000000000  0.000000000 40.700000000     0.000000000  0.000000000  0.024570025

  length of vectors
    40.700000000 40.700000000 40.700000000     0.024570025  0.024570025  0.024570025


 FORCES acting on ions
    electron-ion (+dipol)            ewald-force                    non-local-force                 convergence-correction
 -----------------------------------------------------------------------------------------------
   0.626E+03 -.297E+03 -.297E+03   -.626E+03 0.296E+03 0.296E+03   -.118E+00 0.347E+00 0.347E+00   -.121E-04 0.672E-06 0.672E-06
   -.297E+03 -.297E+03 0.626E+03   0.296E+03 0.296E+03 -.626E+03   0.347E+00 0.347E+00 -.118E+00   0.672E-06 0.672E-06 -.121E-04
   -.297E+03 0.626E+03 -.297E+03   0.296E+03 -.626E+03 0.296E+03   0.347E+00 -.118E+00 0.347E+00   0.672E-06 -.121E-04 0.672E-06
   -.143E+03 -.106E+04 -.143E+03   0.143E+03 0.105E+04 0.143E+03   0.271E+00 0.150E+01 0.271E+00   0.136E-05 0.773E-05 0.136E-05
   -.143E+03 -.143E+03 -.106E+04   0.143E+03 0.143E+03 0.105E+04   0.271E+00 0.271E+00 0.150E+01   0.136E-05 0.136E-05 0.773E-05
   0.136E+04 -.673E+03 0.616E+03   -.136E+04 0.672E+03 -.616E+03   -.186E+01 0.684E+00 -.316E+00   0.767E-06 -.208E-05 0.578E-05
   0.780E+03 -.128E+04 0.780E+03   -.779E+03 0.128E+04 -.779E+03   -.713E+00 0.774E+00 -.713E+00   0.380E-05 -.182E-05 0.380E-05
   0.400E+03 0.400E+03 0.400E+03   -.399E+03 -.399E+03 -.399E+03   -.156E+00 -.156E+00 -.156E+00   0.246E-05 0.246E-05 0.246E-05
   0.136E+04 0.616E+03 -.673E+03   -.136E+04 -.616E+03 0.672E+03   -.186E+01 -.316E+00 0.684E+00   0.767E-06 0.578E-05 -.208E-05
   0.780E+03 0.780E+03 -.128E+04   -.779E+03 -.779E+03 0.128E+04   -.713E+00 -.713E+00 0.774E+00   0.380E-05 0.380E-05 -.182E-05
   0.616E+03 -.673E+03 0.136E+04   -.616E+03 0.672E+03 -.136E+04   -.316E+00 0.684E+00 -.186E+01   0.578E-05 -.208E-05 0.767E-06
   0.616E+03 0.136E+04 -.673E+03   -.616E+03 -.136E+04 0.672E+03   -.316E+00 -.186E+01 0.684E+00   0.578E-05 0.767E-06 -.208E-05
   -.106E+04 -.143E+03 -.143E+03   0.105E+04 0.143E+03 0.143E+03   0.150E+01 0.271E+00 0.271E+00   0.773E-05 0.136E-05 0.136E-05
   -.128E+04 0.780E+03 0.780E+03   0.128E+04 -.779E+03 -.779E+03   0.774E+00 -.713E+00 -.713E+00   -.182E-05 0.380E-05 0.380E-05
   -.673E+03 0.616E+03 0.136E+04   0.672E+03 -.616E+03 -.136E+04   0.684E+00 -.316E+00 -.186E+01   -.208E-05 0.578E-05 0.767E-06
   -.673E+03 0.136E+04 0.616E+03   0.672E+03 -.136E+04 -.616E+03   0.684E+00 -.186E+01 -.316E+00   -.208E-05 0.767E-06 0.578E-05
   0.143E+04 -.122E+04 -.184E+03   -.143E+04 0.122E+04 0.184E+03   -.255E+01 0.145E+01 -.559E-01   0.510E-05 -.364E-05 -.412E-05
   0.143E+04 -.184E+03 -.122E+04   -.143E+04 0.184E+03 0.122E+04   -.255E+01 -.559E-01 0.145E+01   0.510E-05 -.412E-05 -.364E-05
   0.814E+03 -.109E+04 -.109E+04   -.813E+03 0.109E+04 0.109E+04   -.492E+00 0.849E+00 0.849E+00   0.717E-05 -.930E-05 -.930E-05
   -.109E+04 -.109E+04 0.814E+03   0.109E+04 0.109E+04 -.813E+03   0.849E+00 0.849E+00 -.492E+00   -.930E-05 -.930E-05 0.717E-05
   -.184E+03 -.122E+04 0.143E+04   0.184E+03 0.122E+04 -.143E+04   -.559E-01 0.145E+01 -.255E+01   -.412E-05 -.364E-05 0.510E-05
   -.122E+04 0.143E+04 -.184E+03   0.122E+04 -.143E+04 0.184E+03   0.145E+01 -.255E+01 -.559E-01   -.364E-05 0.510E-05 -.412E-05
   -.109E+04 0.814E+03 -.109E+04   0.109E+04 -.813E+03 0.109E+04   0.849E+00 -.492E+00 0.849E+00   -.930E-05 0.717E-05 -.930E-05
   -.184E+03 0.143E+04 -.122E+04   0.184E+03 -.143E+04 0.122E+04   -.559E-01 -.255E+01 0.145E+01   -.412E-05 0.510E-05 -.364E-05
   0.741E+03 -.178E+04 -.993E+02   -.739E+03 0.178E+04 0.992E+02   -.169E+01 0.400E+01 0.108E+00   0.240E-07 -.476E-05 -.387E-05
   -.993E+02 -.178E+04 0.741E+03   0.992E+02 0.178E+04 -.739E+03   0.108E+00 0.400E+01 -.169E+01   -.387E-05 -.476E-05 0.240E-07
   -.178E+04 0.741E+03 -.993E+02   0.178E+04 -.739E+03 0.992E+02   0.400E+01 -.169E+01 0.108E+00   -.476E-05 0.240E-07 -.387E-05
   0.741E+03 -.993E+02 -.178E+04   -.739E+03 0.992E+02 0.178E+04   -.169E+01 0.108E+00 0.400E+01   0.240E-07 -.387E-05 -.476E-05
   -.993E+02 0.741E+03 -.178E+04   0.992E+02 -.739E+03 0.178E+04   0.108E+00 -.169E+01 0.400E+01   -.387E-05 0.240E-07 -.476E-05
   -.904E+03 -.169E+04 -.700E+02   0.902E+03 0.169E+04 0.697E+02   0.177E+01 0.362E+01 0.250E+00   -.775E-06 -.797E-05 0.675E-05
   -.102E+04 -.102E+04 -.102E+04   0.101E+04 0.101E+04 0.101E+04   0.875E+00 0.875E+00 0.875E+00   -.293E-05 -.293E-05 -.293E-05
   -.700E+02 -.169E+04 -.904E+03   0.697E+02 0.169E+04 0.902E+03   0.250E+00 0.362E+01 0.177E+01   0.675E-05 -.797E-05 -.775E-06
   -.904E+03 -.700E+02 -.169E+04   0.902E+03 0.697E+02 0.169E+04   0.177E+01 0.250E+00 0.362E+01   -.775E-06 0.675E-05 -.797E-05
   -.700E+02 -.904E+03 -.169E+04   0.697E+02 0.902E+03 0.169E+04   0.250E+00 0.177E+01 0.362E+01   0.675E-05 -.775E-06 -.797E-05
   -.169E+04 -.700E+02 -.904E+03   0.169E+04 0.697E+02 0.902E+03   0.362E+01 0.250E+00 0.177E+01   -.797E-05 0.675E-05 -.775E-06
   -.122E+04 -.184E+03 0.143E+04   0.122E+04 0.184E+03 -.143E+04   0.145E+01 -.559E-01 -.255E+01   -.364E-05 -.412E-05 0.510E-05
   -.169E+04 -.904E+03 -.700E+02   0.169E+04 0.902E+03 0.697E+02   0.362E+01 0.177E+01 0.250E+00   -.797E-05 -.775E-06 0.675E-05
   -.178E+04 -.993E+02 0.741E+03   0.178E+04 0.992E+02 -.739E+03   0.400E+01 0.108E+00 -.169E+01   -.476E-05 -.387E-05 0.240E-07
   0.179E+04 -.373E+03 -.373E+03   -.179E+04 0.371E+03 0.371E+03   -.415E+01 0.173E+01 0.173E+01   0.127E-04 0.476E-06 0.476E-06
   0.178E+04 0.151E+03 0.151E+03   -.178E+04 -.151E+03 -.151E+03   -.338E+01 -.455E-01 -.455E-01   0.138E-04 -.189E-05 -.189E-05
   0.112E+04 -.104E+03 0.112E+04   -.112E+04 0.104E+03 -.112E+04   -.134E+01 -.154E+00 -.134E+01   0.468E-06 -.476E-05 0.468E-06
   0.112E+04 0.112E+04 -.104E+03   -.112E+04 -.112E+04 0.104E+03   -.134E+01 -.134E+01 -.154E+00   0.468E-06 0.468E-06 -.476E-05
   -.104E+03 0.112E+04 0.112E+04   0.104E+03 -.112E+04 -.112E+04   -.154E+00 -.134E+01 -.134E+01   -.476E-05 0.468E-06 0.468E-06
   -.373E+03 -.373E+03 0.179E+04   0.371E+03 0.371E+03 -.179E+04   0.173E+01 0.173E+01 -.415E+01   0.476E-06 0.476E-06 0.127E-04
   0.151E+03 0.151E+03 0.178E+04   -.151E+03 -.151E+03 -.178E+04   -.455E-01 -.455E-01 -.338E+01   -.189E-05 -.189E-05 0.138E-04
   -.373E+03 0.179E+04 -.373E+03   0.371E+03 -.179E+04 0.371E+03   0.173E+01 -.415E+01 0.173E+01   0.476E-06 0.127E-04 0.476E-06
   0.151E+03 0.178E+04 0.151E+03   -.151E+03 -.178E+04 -.151E+03   -.455E-01 -.338E+01 -.455E-01   -.189E-05 0.138E-04 -.189E-05
   0.148E+04 0.623E+03 0.623E+03   -.148E+04 -.621E+03 -.621E+03   -.436E+01 -.142E+01 -.142E+01   0.105E-04 -.236E-05 -.236E-05
   0.623E+03 0.623E+03 0.148E+04   -.621E+03 -.621E+03 -.148E+04   -.142E+01 -.142E+01 -.436E+01   -.236E-05 -.236E-05 0.105E-04
   0.623E+03 0.148E+04 0.623E+03   -.621E+03 -.148E+04 -.621E+03   -.142E+01 -.436E+01 -.142E+01   -.236E-05 0.105E-04 -.236E-05
 -----------------------------------------------------------------------------------------------
   -.523E+00 -.523E+00 -.523E+00   0.239E-11 0.682E-12 0.796E-12   0.520E+00 0.520E+00 0.520E+00   0.152E-05 0.152E-05 0.152E-05
 
 
 POSITION                                       TOTAL-FORCE (eV/Angst)
 -----------------------------------------------------------------------------------
     19.32500     21.37500     21.37500         0.060241      0.022265      0.022265
     21.37500     21.37500     19.32500         0.022265      0.022265      0.060241
     21.37500     19.32500     21.37500         0.022265      0.060241      0.022265
     21.37500     23.42500     21.37500         0.011112      0.233368      0.011112
     21.37500     21.37500     23.42500         0.011112      0.011112      0.233368
     17.27500     21.37500     19.32500        -0.092851      0.045943     -0.093710
     19.32500     23.42500     19.32500        -0.072063      0.073947     -0.072063
     19.32500     19.32500     19.32500         0.083301      0.083301      0.083301
     17.27500     19.32500     21.37500        -0.092851     -0.093710      0.045943
     19.32500     19.32500     23.42500        -0.072063     -0.072063      0.073947
     19.32500     21.37500     17.27500        -0.093710      0.045943     -0.092851
     19.32500     17.27500     21.37500        -0.093710     -0.092851      0.045943
     23.42500     21.37500     21.37500         0.233368      0.011112      0.011112
     23.42500     19.32500     19.32500         0.073947     -0.072063     -0.072063
     21.37500     19.32500     17.27500         0.045943     -0.093710     -0.092851
     21.37500     17.27500     19.32500         0.045943     -0.092851     -0.093710
     17.27500     23.42500     21.37500         0.126627     -0.060186      0.032604
     17.27500     21.37500     23.42500         0.126627      0.032604     -0.060186
     19.32500     23.42500     23.42500        -0.148794      0.125335      0.125335
     23.42500     23.42500     19.32500         0.125335      0.125335     -0.148794
     21.37500     23.42500     17.27500         0.032604     -0.060186      0.126627
     23.42500     17.27500     21.37500        -0.060186      0.126627      0.032604
     23.42500     19.32500     23.42500         0.125335     -0.148794      0.125335
     21.37500     17.27500     23.42500         0.032604      0.126627     -0.060186
     19.32500     25.47500     21.37500         0.119154     -0.348628      0.007321
     21.37500     25.47500     19.32500         0.007321     -0.348628      0.119154
     25.47500     19.32500     21.37500        -0.348628      0.119154      0.007321
     19.32500     21.37500     25.47500         0.119154      0.007321     -0.348628
     21.37500     19.32500     25.47500         0.007321      0.119154     -0.348628
     23.42500     25.47500     21.37500        -0.141345     -0.244934     -0.025521
     23.42500     23.42500     23.42500         0.130017      0.130017      0.130017
     21.37500     25.47500     23.42500        -0.025521     -0.244934     -0.141345
     23.42500     21.37500     25.47500        -0.141345     -0.025521     -0.244934
     21.37500     23.42500     25.47500        -0.025521     -0.141345     -0.244934
     25.47500     21.37500     23.42500        -0.244934     -0.025521     -0.141345
     23.42500     21.37500     17.27500        -0.060186      0.032604      0.126627
     25.47500     23.42500     21.37500        -0.244934     -0.141345     -0.025521
     25.47500     21.37500     19.32500        -0.348628      0.007321      0.119154
     15.22500     21.37500     21.37500         0.293402     -0.160947     -0.160947
     15.22500     19.32500     19.32500         0.231328      0.049278      0.049278
     17.27500     19.32500     17.27500        -0.158353      0.053632     -0.158353
     17.27500     17.27500     19.32500        -0.158353     -0.158353      0.053632
     19.32500     17.27500     17.27500         0.053632     -0.158353     -0.158353
     21.37500     21.37500     15.22500        -0.160947     -0.160947      0.293402
     19.32500     19.32500     15.22500         0.049278      0.049278      0.231328
     21.37500     15.22500     21.37500        -0.160947      0.293402     -0.160947
     19.32500     15.22500     19.32500         0.049278      0.231328      0.049278
     15.22500     17.27500     17.27500         0.422800      0.142277      0.142277
     17.27500     17.27500     15.22500         0.142277      0.142277      0.422800
     17.27500     15.22500     17.27500         0.142277      0.422800      0.142277
 -----------------------------------------------------------------------------------
    total drift:                               -0.002803     -0.002803     -0.002816


--------------------------------------------------------------------------------------------------------



  FREE ENERGIE OF THE ION-ELECTRON SYSTEM (eV)
  ---------------------------------------------------
  free  energy   TOTEN  =      -109.16471658 eV

  energy  without entropy=     -108.77772623  energy(sigma->0) =     -108.97122140
 


--------------------------------------------------------------------------------------------------------


    POTLOK:  cpu time      1.1421: real time      1.1507


--------------------------------------------------------------------------------------------------------


 stress matrix after NEB project (eV)
    -12.87882     -1.99067     -1.99067
     -1.99067    -12.87882     -1.99067
     -1.99067     -1.99067    -12.87882
  FORCES: max atom, RMS     0.468237    0.260892
  FORCE total and by dimension    1.844788    0.422800
  Stress total and by dimension   22.833497   12.878820
     LOOP+:  cpu time    565.7622: real time    572.3283
    4ORBIT:  cpu time      0.0000: real time      0.0000

 total amount of memory used by VASP MPI-rank0  1114803. kBytes
=======================================================================

   base      :      30000. kBytes
   nonlr-proj:      35253. kBytes
   fftplans  :     137265. kBytes
   grid      :     872674. kBytes
   one-center:        388. kBytes
   wavefun   :      39223. kBytes
 
  
  
 General timing and accounting informations for this job:
 ========================================================
  
                  Total CPU time used (sec):      609.127
                            User time (sec):      589.081
                          System time (sec):       20.046
                         Elapsed time (sec):      618.233
  
                   Maximum memory used (kb):     2782484.
                   Average memory used (kb):          N/A
  
                          Minor page faults:      1045987
                          Major page faults:           50
                 Voluntary context switches:         7344
