 running on   96 total cores
 distrk:  each k-point on   96 cores,    1 groups
 distr:  one band on    1 cores,   96 groups
 vasp.6.3.0 20Jan22 (build Jul 12 2024 16:06:18) gamma-only                     
  
 POSCAR found :  1 types and      50 ions
 scaLAPACK is switched off
 -----------------------------------------------------------------------------
|                                                                             |
|           W    W    AA    RRRRR   N    N  II  N    N   GGGG   !!!           |
|           W    W   A  A   R    R  NN   N  II  NN   N  G    G  !!!           |
|           W    W  A    A  R    R  N N  N  II  N N  N  G       !!!           |
|           W WW W  AAAAAA  RRRRR   N  N N  II  N  N N  G  GGG   !            |
|           WW  WW  A    A  R   R   N   NN  II  N   NN  G    G                |
|           W    W  A    A  R    R  N    N  II  N    N   GGGG   !!!           |
|                                                                             |
|     For optimal performance we recommend to set                             |
|       NCORE = 2 up to number-of-cores-per-socket                            |
|     NCORE specifies how many cores store one orbital (NPAR=cpu/NCORE).      |
|     This setting can greatly improve the performance of VASP for DFT.       |
|     The default, NCORE=1 might be grossly inefficient on modern             |
|     multi-core architectures or massively parallel machines. Do your        |
|     own testing! More info at https://www.vasp.at/wiki/index.php/NCORE      |
|     Unfortunately you need to use the default for GW and RPA                |
|     calculations (for HF NCORE is supported but not extensively tested      |
|     yet).                                                                   |
|                                                                             |
 -----------------------------------------------------------------------------

 LDA part: xc-table for Pade appr. of Perdew
 POSCAR found :  1 types and      50 ions
 POSCAR, INCAR and KPOINTS ok, starting setup
 FFT: planning ... GRIDC
 FFT: planning ... GRID_SOFT
 FFT: planning ... GRID
 WAVECAR not read
 entering main loop
       N       E                     dE             d eps       ncg     rms          rms(c)
DAV:   1     0.497647539305E+04    0.49765E+04   -0.84551E+04   768   0.652E+02
DAV:   2     0.244080259553E+04   -0.25357E+04   -0.23139E+04  1536   0.700E+01
DAV:   3     0.244320561452E+03   -0.21965E+04   -0.20953E+04  1344   0.784E+01
DAV:   4    -0.105534364331E+03   -0.34985E+03   -0.31203E+03  1056   0.422E+01
DAV:   5    -0.117626639979E+03   -0.12092E+02   -0.11887E+02   768   0.985E+00    0.253E+01
DAV:   6    -0.109671281439E+03    0.79554E+01   -0.31124E+01   960   0.103E+01    0.167E+01
DAV:   7    -0.109238762339E+03    0.43252E+00   -0.14516E+00   960   0.194E+00    0.859E+00
DAV:   8    -0.109159551035E+03    0.79211E-01   -0.25926E-01  1056   0.162E+00    0.952E-01
DAV:   9    -0.109151228963E+03    0.83221E-02   -0.10664E-01   960   0.125E+00    0.308E-01
DAV:  10    -0.109150393236E+03    0.83573E-03   -0.19322E-02  1056   0.374E-01    0.156E-01
DAV:  11    -0.109151012450E+03   -0.61921E-03   -0.27015E-03  1056   0.136E-01    0.950E-02
DAV:  12    -0.109152833396E+03   -0.18209E-02   -0.11898E-03  1152   0.481E-02    0.525E-02
DAV:  13    -0.109155101969E+03   -0.22686E-02   -0.51491E-04   768   0.393E-02    0.351E-02
DAV:  14    -0.109158351695E+03   -0.32497E-02   -0.41953E-04   960   0.431E-02    0.264E-02
DAV:  15    -0.109160143549E+03   -0.17919E-02   -0.13140E-04   960   0.154E-02    0.129E-02
DAV:  16    -0.109161976917E+03   -0.18334E-02   -0.14287E-04   960   0.154E-02    0.890E-03
DAV:  17    -0.109163011506E+03   -0.10346E-02   -0.32825E-05   768   0.116E-02    0.490E-03
DAV:  18    -0.109163774029E+03   -0.76252E-03   -0.20667E-05   864   0.345E-03    0.271E-03
DAV:  19    -0.109164233530E+03   -0.45950E-03   -0.77576E-06   768   0.294E-03    0.164E-03
DAV:  20    -0.109164443294E+03   -0.20976E-03   -0.20336E-06   768   0.163E-03    0.954E-04
DAV:  21    -0.109164573140E+03   -0.12985E-03   -0.51971E-07   768   0.748E-04    0.545E-04
DAV:  22    -0.109164652412E+03   -0.79272E-04    0.43380E-07   768   0.575E-04    0.288E-04
DAV:  23    -0.109164683800E+03   -0.31388E-04    0.15399E-06   768   0.348E-04    0.196E-04
DAV:  24    -0.109164701161E+03   -0.17360E-04    0.16779E-06   768   0.253E-04    0.119E-04
DAV:  25    -0.109164710171E+03   -0.90105E-05    0.17803E-06   768   0.153E-04    0.697E-05
DAV:  26    -0.109164713776E+03   -0.36045E-05    0.18308E-06   768   0.905E-05    0.476E-05
DAV:  27    -0.109164715649E+03   -0.18726E-05    0.18325E-06   768   0.740E-05    0.271E-05
DAV:  28    -0.109164716577E+03   -0.92878E-06    0.18278E-06   672   0.504E-05
   1 F= -.10916472E+03 E0= -.10897122E+03  d E =-.386990E+00
