unknown system                          
           1
    40.700000    0.000000    0.000000
     0.000000   40.700000    0.000000
     0.000000    0.000000   40.700000
   Ag
    50
Direct configuration=     1
   0.47481572  0.52518428  0.52518428
   0.52518428  0.52518428  0.47481572
   0.52518428  0.47481572  0.52518428
   0.52518428  0.57555283  0.52518428
   0.52518428  0.52518428  0.57555283
   0.42444717  0.52518428  0.47481572
   0.47481572  0.57555283  0.47481572
   0.47481572  0.47481572  0.47481572
   0.42444717  0.47481572  0.52518428
   0.47481572  0.47481572  0.57555283
   0.47481572  0.52518428  0.42444717
   0.47481572  0.42444717  0.52518428
   0.57555283  0.52518428  0.52518428
   0.57555283  0.47481572  0.47481572
   0.52518428  0.47481572  0.42444717
   0.52518428  0.42444717  0.47481572
   0.42444717  0.57555283  0.52518428
   0.42444717  0.52518428  0.57555283
   0.47481572  0.57555283  0.57555283
   0.57555283  0.57555283  0.47481572
   0.52518428  0.57555283  0.42444717
   0.57555283  0.42444717  0.52518428
   0.57555283  0.47481572  0.57555283
   0.52518428  0.42444717  0.57555283
   0.47481572  0.62592138  0.52518428
   0.52518428  0.62592138  0.47481572
   0.62592138  0.47481572  0.52518428
   0.47481572  0.52518428  0.62592138
   0.52518428  0.47481572  0.62592138
   0.57555283  0.62592138  0.52518428
   0.57555283  0.57555283  0.57555283
   0.52518428  0.62592138  0.57555283
   0.57555283  0.52518428  0.62592138
   0.52518428  0.57555283  0.62592138
   0.62592138  0.52518428  0.57555283
   0.57555283  0.52518428  0.42444717
   0.62592138  0.57555283  0.52518428
   0.62592138  0.52518428  0.47481572
   0.37407862  0.52518428  0.52518428
   0.37407862  0.47481572  0.47481572
   0.42444717  0.47481572  0.42444717
   0.42444717  0.42444717  0.47481572
   0.47481572  0.42444717  0.42444717
   0.52518428  0.52518428  0.37407862
   0.47481572  0.47481572  0.37407862
   0.52518428  0.37407862  0.52518428
   0.47481572  0.37407862  0.47481572
   0.37407862  0.42444717  0.42444717
   0.42444717  0.42444717  0.37407862
   0.42444717  0.37407862  0.42444717
