25
Lattice="25.1 0.0 0.0 0.0 25.1 0.0 0.0 0.0 25.1" Properties=species:S:1:pos:R:3:momenta:R:3:c_unc:R:1:forces:R:3:magmoms:R:1 step=5.0 target_atoms="1 9 10 15 23 24 17 14 19 21 18 20 22" energy=-66.38338866 stress="0.0007560446546743169 0.00011733088447273392 -0.00030509354190671263 0.00011733088447273392 0.00021076913469838594 0.00019043327435876165 -0.00030509354190671263 0.00019043327435876165 0.0006374728645647205" dipole="_JSON [[0.0, 0.0, 0.0]]" magmom=6.3726102 free_energy=-66.51459555 pbc="T T T"
Ag      12.54880753      12.55049532      12.55063188      -0.52182934       0.21488224       0.27690191       0.00928626      -0.56832953      -0.14047485       0.13446997       0.00000000
Ag      14.60156243      12.55141611      10.49837789       0.68691244       0.61675218      -0.71690065       0.01238424       0.98730916       0.91241805      -0.41163280       0.00000000
Ag      14.59967883      10.50020131      12.55160424      -0.14138866       0.08840070       0.70014048       0.00028810      -0.30511435       0.18980339       1.38976649       0.00000000
Ag      14.60019971      14.60006613      12.54953387       0.08784421       0.03019825      -0.20320206       0.00591141       0.33321378       0.03000504      -0.32019356       0.00000000
Ag      14.60112270      12.55033395      14.59995889       0.49205945       0.14434937      -0.01626780       0.00532121       0.89978535       0.25248867       0.10052970       0.00000000
Ag      16.64991699      12.55059704      12.55065684      -0.03531851       0.26137739       0.28520991       0.00763524      -0.00975553       0.84697347       0.48073499       0.00000000
Ag      10.50025095      12.54965804      10.50036114       0.10871979      -0.15146078       0.15630352       0.00586183       0.01161443       0.03590529       0.30604347       0.00000000
Ag      12.54913820      14.59995543      10.50110380      -0.37819913      -0.01818571       0.48189748       0.00628833      -0.67645955       0.10644210       0.48025151       0.00000000
Ag      12.54778583      10.49915464      10.49971436      -0.97026256      -0.37330363      -0.12567799       0.00676960      -1.28920290      -0.68641703      -0.28263680       0.00000000
Ag      12.55118166      12.54986344       8.44949994       0.52125315      -0.06213187      -0.22223897       0.01376954      -0.10961021      -0.72377329      -0.54088039       0.00000000
Ag      10.49948374      10.50059371      12.55005243      -0.22768375       0.25894073       0.02144445       0.01813722      -0.42395482       0.30809665      -0.35224755       0.00000000
Ag      12.54853627      10.49994851      14.59967853      -0.64048673      -0.02138016      -0.13917690       0.00612843      -0.90222667      -0.04551200      -0.21554331       0.00000000
Ag      12.54993429       8.45042728      12.54991037      -0.02829541       0.18820113      -0.03867496       0.00802006      -0.24059069       0.16753082      -0.02006391       0.00000000
O       16.86092090      12.37167894      14.72045180      -0.37414072       0.13137993      -0.65736911       0.00086998      -0.68674917       0.06526232      -1.32387541       0.00000000
O       10.93953891      14.16721408      12.24344099       0.31359722      -0.43417829      -1.40003492       0.30046040       0.58356422      -0.58488264      -2.28709561       0.00000000
Cl      14.99243718      10.15472796      10.27228266       0.47658985      -0.68826997      -0.53364670       0.03941619       0.84316013      -1.29918893      -1.25048305       0.00000000
Cl      13.81280581      11.17973442      16.44105427       0.06559851      -0.05792895       0.56117832       0.00193491       0.30222479      -0.18606034       0.81738316       0.00000000
O       10.39316440      11.42643519      14.70149738       0.43703031       0.14554962      -0.48839045       0.20006022       0.42713414      -0.42610589      -1.03899370       0.00000000
O       14.82774746      12.54834993       8.01810280      -0.82723250      -0.05528743       0.45282121       0.82707947      -0.44056122      -0.76268387       0.13299226       0.00000000
O       10.39362098       9.39149676      10.36212517       0.74004879       0.38466074       0.53296727       0.58186175       0.89399908       0.89313320       1.23799260       0.00000000
Cl      14.27013169      14.60183907       8.71665978      -0.49310891       0.12714798       0.05821005       0.93854191      -0.84752846       1.25752955       0.09061820       0.00000000
Cl      12.57289791      14.44443234      14.22729412       0.96673696      -0.10891113       0.11630035       0.65054971       1.09234544       0.31173552       0.24440022       0.00000000
Cl      10.63531177      10.55164558       8.14503022       0.10746028       0.42257050      -0.09289883       0.98515647       0.68047731       1.20180598       0.53009890       0.00000000
Cl      10.54124768       8.50459966      14.05630737       0.05301510      -0.56596589       0.00451011       0.14294855       0.25887322      -0.65893564       0.21592094       0.00000000
O       16.09853043      14.31283693      10.84765534      -0.41891985      -0.47740698       0.98659427       0.14853814      -0.81361796      -1.06509557       1.88244365       0.00000000
25
Lattice="25.1 0.0 0.0 0.0 25.1 0.0 0.0 0.0 25.1" Properties=species:S:1:pos:R:3:momenta:R:3:c_unc:R:1:forces:R:3:magmoms:R:1 step=10.0 target_atoms="17 24 14 20 22 19 21 18" energy=-66.97208771 stress="0.0007202542747277118 0.00011029477506154358 -0.00031359946430195725 0.00011029477506154358 0.00022312154937169335 0.00019873092383598462 -0.00031359946430195725 0.00019873092383598462 0.0006269481884578003" dipole="_JSON [[0.0, 0.0, 0.0]]" magmom=6.1619329 free_energy=-67.10932444 pbc="T T T"
Ag      12.54546285      12.55125477      12.55192819      -0.94118546       0.12018005       0.29025549       0.00903623      -0.51920484      -0.16002878       0.14798438       0.00000000
Ag      14.60599616      12.55535946      10.49442981       1.25321188       1.10302244      -1.00036904       0.00080739       0.93867168       0.73278277      -0.39859522       0.00000000
Ag      14.59869189      10.50082525      12.55621490      -0.29298598       0.18569557       1.31161574       0.00045426      -0.27177494       0.17850733       1.19955018       0.00000000
Ag      14.60111729      14.60024384      12.54818460       0.31447251       0.04981232      -0.38101757       0.00578812       0.23331286       0.03673817      -0.22724017       0.00000000
Ag      14.60447130      12.55120731      14.59988995       0.97359508       0.23466935      -0.00986253       0.00508190       0.80246550       0.23474082       0.14746263       0.00000000
Ag      16.64970628      12.55254062      12.55263820      -0.05654999       0.59037318       0.57425502       0.00798285      -0.02608705       0.88822321       0.38211590       0.00000000
Ag      10.50092156      12.54854218      10.50135371       0.18773754      -0.33469797       0.28115245       0.00580930      -0.02148588       0.08615215       0.27592395       0.00000000
Ag      12.54646031      14.59984602      10.50436925      -0.79484035      -0.02795173       0.93347210       0.00611451      -0.67531111       0.09153646       0.43541651       0.00000000
Ag      12.54145870      10.49680423      10.49854916      -1.77370655      -0.64993468      -0.38719124       0.00555232      -1.10947587      -0.70425954      -0.29591193       0.00000000
Ag      12.55315984      12.54891697       8.44809268       0.31059812      -0.35059138      -0.38927928       0.00055856      -0.19001973      -0.73437057      -0.52256778       0.00000000
Ag      10.49786791      10.50238391      12.54972216      -0.48505880       0.51970109      -0.17126848       0.00135284      -0.44270465       0.28303872      -0.31738430       0.00000000
Ag      12.54478404      10.49956642      14.59874557      -0.99896505      -0.14471039      -0.26437136       0.00589011      -0.81168823      -0.01716957      -0.11246609       0.00000000
Ag      12.54974624       8.45152911      12.55004302      -0.04619266       0.29407364       0.10394423       0.00703050      -0.23602196       0.15976773      -0.01985081       0.00000000
O       16.84408591      12.37712480      14.69034307      -0.71667170       0.22150566      -1.29220206       0.00172771      -0.60269959       0.02451968      -1.20969296       0.00000000
O       10.95565708      14.14762344      12.18213415       0.73447108      -0.83434748      -2.57812626       0.02905813       0.54090894      -0.60909366      -2.32355108       0.00000000
Cl      15.00190943      10.14073757      10.26115643       0.88059434      -1.32296111      -1.05888988       0.00348106       0.66714107      -1.14446415      -1.03716232       0.00000000
Cl      13.81391862      11.17862945      16.45232541       0.09332254      -0.10177873       1.05858161       0.00218932       0.27960996      -0.17933462       0.67674975       0.00000000
O       10.41087553      11.42972806      14.67988587       0.70784512       0.07035079      -0.91203405       0.01359821       0.39391971      -0.43202527      -1.05144544       0.00000000
O       14.79865720      12.53960488       8.03136440      -1.03054892      -0.48871273       0.38818811       0.06502840      -0.37435398      -0.74907609       0.13228508       0.00000000
O       10.42432961       9.40989464      10.38433504       1.23025012       0.80226189       0.91583416       0.05355309       0.86437467       0.89774771       1.22841199       0.00000000
Cl      14.26011730      14.60781310       8.71865934      -0.94236225       0.70138977       0.23416001       0.02952404      -0.81789049       1.30894865       0.05725969       0.00000000
Cl      12.59032073      14.44414954      14.23009096       1.53375133       0.06545676       0.28956715       0.05629706       1.13737841       0.31406299       0.28301912       0.00000000
Cl      10.63934940      10.56158729       8.14539571       0.47515325       1.01612077       0.13806340       0.04396643       0.65030431       1.18176661       0.54541164       0.00000000
Cl      10.54258810       8.49491996      14.05696479       0.14116091      -0.83129925       0.09050407       0.00785259       0.26849116      -0.62839502       0.19175063       0.00000000
O       16.08041603      14.29175519      10.89124986      -0.75709614      -0.88762783       1.83501818       0.01492053      -0.67785997      -1.06031574       1.81252664       0.00000000
25
Lattice="25.1 0.0 0.0 0.0 25.1 0.0 0.0 0.0 25.1" Properties=species:S:1:pos:R:3:momenta:R:3:c_unc:R:1:forces:R:3:magmoms:R:1 step=20.0 target_atoms="5 24 17 15 14 23 22 19 21 20 18" energy=-68.79447575 stress="0.0005042291651944196 7.373085368142203e-05 -0.00027576201915828133 7.373085368142203e-05 0.00020017808014191193 0.0001980353014023958 -0.00027576201915828133 0.0001980353014023958 0.00045256941749527245" dipole="_JSON [[0.0, 0.0, 0.0]]" magmom=5.5902675 free_energy=-68.92982267 pbc="T T T"
Ag      12.53426020      12.55158754      12.55500907      -1.46986944      -0.03054004       0.40748012       0.00917404      -0.28276579      -0.30290429       0.22614480       0.00000000
Ag      14.62255702      12.56762941      10.48369317       2.35459966       1.50346200      -1.31111902       0.00318804       0.63657014       0.14576443      -0.47943929       0.00000000
Ag      14.59448581      10.50350968      12.57255789      -0.63564523       0.39854797       2.19175731       0.00097878      -0.15997304       0.13662593       0.61826228       0.00000000
Ag      14.60504505      14.60133906      12.54429811       0.47490533       0.19035073      -0.38369246       0.00617489      -0.36705458       0.10646233       0.37066272       0.00000000
Ag      14.61714118      12.55397008      14.60029848       1.74790025       0.35000928       0.11289161       0.00525377       0.36331710       0.18119662       0.30243736       0.00000000
Ag      16.64900552      12.56113570      12.55880817      -0.09739008       1.26690651       0.67749174       0.01012313      -0.07969993       0.96033674      -0.14880971       0.00000000
Ag      10.50333607      12.54388192      10.50485883       0.32438477      -0.71546549       0.42483658       0.00609324      -0.16953499      -0.05989585      -0.12291604       0.00000000
Ag      12.53662461      14.59992867      10.51426596      -1.29705841       0.05342244       1.11438547       0.00629041      -0.35877914       0.08058170      -0.02565014       0.00000000
Ag      12.52116306      10.48948612      10.49286720      -2.47982077      -0.92306897      -0.86589682       0.00568122      -0.44727816      -0.68443944      -0.31768455       0.00000000
Ag      12.55258689      12.54326959       8.44291465      -0.50306837      -0.86239234      -0.72982197       0.00206701      -0.34067290      -0.71631827      -0.45004675       0.00000000
Ag      10.49095187      10.50866876      12.54632014      -1.05343337       0.83810408      -0.57239425       0.00744651      -0.46765188       0.17682614      -0.19251159       0.00000000
Ag      12.53220202      10.49784427      14.59596637      -1.72238033      -0.21035398      -0.30822514       0.00604419      -0.48820046       0.07459832       0.21362627       0.00000000
Ag      12.54975851       8.45497395      12.55243220       0.07647752       0.46039967       0.44008886       0.00718687      -0.22231220       0.13632409      -0.03270537       0.00000000
O       16.78400315      12.39473296      14.58162813      -1.16784410       0.34356824      -2.12246020       0.00366189      -0.18152858      -0.13594221      -0.51648882       0.00000000
O       11.01917081      14.07869703      11.96308007       1.27296001      -1.30864904      -4.35664098       0.02184286       0.16233713      -0.30542089      -1.65501798       0.00000000
Cl      15.03624015      10.08848256      10.21995755       1.53956439      -2.39836195      -1.82055896       0.01803165       0.16642449      -0.69491131      -0.40168579       0.00000000
Cl      13.81752350      11.17457499      16.49363223       0.14797383      -0.19493371       1.88434901       0.00354246       0.20682563      -0.17178904       0.24780785       0.00000000
O       10.46920209      11.42648150      14.59763712       1.16294288      -0.16070536      -1.72907388       0.01470138       0.23597094      -0.41007436      -1.07607979       0.00000000
O       14.73097699      12.50294622       8.05372245      -1.11639522      -0.49977402       0.32374893       0.06588166      -0.23637301      -0.56995374       0.17155656       0.00000000
O       10.50918840       9.48202416      10.46577572       1.41276218       1.49522729       1.68607496       0.04628984       0.61597446       0.79819500       1.18994991       0.00000000
Cl      14.22380889      14.63823690       8.72606081      -1.62044835       1.30366554       0.24294935       0.06174968      -0.66852535       1.27163138      -0.01353855       0.00000000
Cl      12.64651300      14.44932652      14.24309208       2.45963554       0.28866240       0.64363142       0.05793883       1.13288222       0.32586699       0.27657878       0.00000000
Cl      10.65983728      10.60394038       8.15472446       0.94070994       1.99198175       0.49884886       0.04329017       0.54217934       1.09642152       0.53156610       0.00000000
Cl      10.54917903       8.46305991      14.06199488       0.33683269      -1.48203742       0.28219568       0.03205126       0.28736483      -0.52807670       0.11088086       0.00000000
O       16.02052948      14.21074529      11.05191474      -1.08829532      -1.69802558       3.26915377       0.01425607       0.12050372      -0.91110507       1.17310086       0.00000000
25
Lattice="25.1 0.0 0.0 0.0 25.1 0.0 0.0 0.0 25.1" Properties=species:S:1:pos:R:3:momenta:R:3:c_unc:R:1:forces:R:3:magmoms:R:1 step=30.0 target_atoms="15 13 24 17 14 10 21 19 18 22 20" energy=-69.76871215 stress="-6.113569423519078e-05 -1.8051124716549104e-05 -7.190864509212043e-05 -1.8051124716549104e-05 -7.291928273280169e-05 0.00016979350869828896 -7.190864509212043e-05 0.00016979350869828896 -0.000116652164045858" dipole="_JSON [[0.0, 0.0, 0.0]]" magmom=5.0356209 free_energy=-69.90522559 pbc="T T T"
Ag      12.52003276      12.55097610      12.55994909      -1.57315333      -0.15761489       0.69320649       0.00931834      -0.04483321      -0.45411094       0.36919698       0.00000000
Ag      14.64810913      12.58058736      10.46927532       3.18487208       1.19024460      -1.90772880       0.00559187       0.13740577      -0.45480644      -0.77171155       0.00000000
Ag      14.58725573      10.50791805      12.59423277      -0.95115036       0.56827314       2.48546336       0.00160923      -0.04766849       0.07306911       0.03883022       0.00000000
Ag      14.60629065      14.60374954      12.54402892      -0.47490275       0.39398523       0.57044767       0.00748402      -1.75968657       0.51015801       1.70752247       0.00000000
Ag      14.63442224      12.55753993      14.60238976       1.91167692       0.39420333       0.35607660       0.00558937      -0.30447344       0.09997119       0.55508506       0.00000000
Ag      16.64807217      12.57488084      12.56206477      -0.09098485       1.61588695      -0.19012693       0.00808909       0.05652818       0.56948828      -1.13239845       0.00000000
Ag      10.50579803      12.53404359      10.50690179       0.13241426      -1.67477569      -0.17213529       0.00731259      -0.71641085      -1.36589090      -1.38098763       0.00000000
Ag      12.52539128      14.60134712      10.52214900      -0.84801665       0.35362077       0.32863718       0.00776444       1.27895911       0.55759345      -1.61680329       0.00000000
Ag      12.49722619      10.47930749      10.48267359      -2.61144494      -1.30111998      -1.38173648       0.00638675       0.70392332      -0.49761775      -0.35253495       0.00000000
Ag      12.54618016      12.53261599       8.43352850      -0.82264116      -1.48413923      -1.37062242       0.00411486      -0.47472975      -0.67414109      -0.37467566       0.00000000
Ag      10.47883813      10.51700271      12.53892647      -1.60285997       1.00604689      -1.02669462       0.01877714      -0.30561714       0.07624291       0.07494146       0.00000000
Ag      12.51466477      10.49646814      14.59365741      -2.07474898      -0.06091381      -0.16249248       0.00640778      -0.07863021       0.14855242       0.59440405       0.00000000
Ag      12.55024335       8.46027979      12.55737743       0.05376807       0.70768697       0.65616911       0.00736961      -0.22100631       0.10317788      -0.07775093       0.00000000
O       16.71557686      12.41590088      14.45751873      -0.91262777       0.31293503      -1.57629556       0.01275097       0.54307814      -0.41612224       1.13139783       0.00000000
O       11.09505276      14.00445361      11.68442252       0.95104433      -0.84112581      -4.08064539       0.01685007      -1.13591682       0.76166846       1.27720865       0.00000000
Cl      15.08268946      10.01289580      10.16626076       1.75019828      -2.99375837      -1.96668584       0.01237095      -0.26689330      -0.28317283       0.19221173       0.00000000
Cl      13.82070449      11.16760751      16.55385226       0.06042263      -0.30871247       2.40969708       0.00436842       0.08241025      -0.18812871      -0.21695487       0.00000000
O       10.54608359      11.40368829      14.47460172       1.29964564      -0.58895409      -2.19246725       0.01623307      -0.06381773      -0.25560680      -1.03817853       0.00000000
O       14.64996415      12.45366137       8.07595182      -1.56459709      -1.15106152       0.44548022       0.04618985      -0.04162421      -0.34303334       0.19347314       0.00000000
O       10.60763054       9.59931050      10.59179791       1.69043676       2.22921300       2.30670039       0.04096237      -0.20116710       0.29829118       1.19091375       0.00000000
Cl      14.16697783      14.69118919       8.73444217      -2.44113971       2.62189929       0.36992008       0.07562289      -0.40917207       1.14255983       0.00769641       0.00000000
Cl      12.72665799      14.45904515      14.26399712       3.21632348       0.43060951       0.80388019       0.03379953       0.85050281       0.34403751       0.10154841       0.00000000
Cl      10.69266926      10.67036613       8.17307972       1.39239998       2.75223633       0.77726421       0.05027708       0.42097972       1.06205949       0.29421269       0.00000000
Cl      10.56147792       8.41498318      14.07232798       0.55317272      -1.95763413       0.47977710       0.00884535       0.28811927      -0.41772942       0.01967834       0.00000000
O       15.97127658      14.09059423      11.26723964      -0.22810760      -2.05703104       3.34491137       0.01551429       1.70974063      -0.39650925      -0.78632533       0.00000000
25
Lattice="25.1 0.0 0.0 0.0 25.1 0.0 0.0 0.0 25.1" Properties=species:S:1:pos:R:3:momenta:R:3:c_unc:R:1:forces:R:3:magmoms:R:1 step=40.0 target_atoms="10 14 15 5 17 21 24 13 23 19 18 22 20" energy=-69.5732793 stress="-0.0006204035105091455 -6.40420966502222e-05 6.049216967827571e-05 -6.40420966502222e-05 -0.0004410074212961578 0.00017750670326096424 6.049216967827571e-05 0.00017750670326096424 -0.0006434175275165768" dipole="_JSON [[0.0, 0.0, 0.0]]" magmom=4.7084363 free_energy=-69.7227182 pbc="T T T"
Ag      12.50584505      12.54806434      12.56772373      -1.56372097      -0.47294408       0.98899027       0.00934341      -0.09430054      -0.28774070       0.32917966       0.00000000
Ag      14.67918198      12.58709899      10.44792944       3.59217470       0.17076040      -2.83714786       0.00751863      -0.07565263      -0.53928632      -0.90498651       0.00000000
Ag      14.57752529      10.51386297      12.61662814      -1.18212294       0.73590586       2.37077307       0.00200407       0.03834632       0.01958652      -0.37153090       0.00000000
Ag      14.59287286      14.60995843      12.55744268      -2.50515100       1.00650823       2.36030899       0.00871750      -1.93385854       0.68589559       1.69959271       0.00000000
Ag      14.64976644      12.56037032      14.60742668       1.39388623       0.18617862       0.76730662       0.00596682      -0.68825502       0.00827181       0.78130849       0.00000000
Ag      16.64787118      12.58866859      12.55365228       0.17112350       1.11566891      -1.53708480       0.01562355       0.81630447      -1.12067909      -0.09238941       0.00000000
Ag      10.50375628      12.50968057      10.49825859      -0.65259442      -3.79639982      -1.79696325       0.00892317      -1.17130952      -2.39128420      -2.06930929       0.00000000
Ag      12.52637113      14.60872243      10.51647886       1.24269047       1.37068898      -1.63412889       0.00971184       2.61676030       1.09248944      -2.59093265       0.00000000
Ag      12.47908323      10.46680412      10.46743911      -1.02346656      -1.35064981      -1.97349404       0.00781089       2.42847207      -0.09116568      -0.51674446       0.00000000
Ag      12.53758064      12.51594070       8.41839181      -0.95981837      -2.16192527      -1.94273498       0.00653567      -0.82700031      -0.46685809      -0.28414843       0.00000000
Ag      10.46265215      10.52723566      12.52953621      -1.90431097       1.29698146      -0.90812654       0.01150493       0.05130959       0.30899819       0.68663917       0.00000000
Ag      12.49528142      10.49683930      14.59387911      -2.08734628       0.12097055       0.23606811       0.00692790       0.43235561       0.07775104       0.98154149       0.00000000
Ag      12.55115399       8.46738515      12.56463845       0.17379319       0.84456300       0.93628159       0.00785790      -0.20224015       0.06605939      -0.08632316       0.00000000
O       16.68704750      12.42568407      14.41621314       0.08083256      -0.07707857       0.45434248       0.02904803       0.95173597      -0.64089328       1.75292849       0.00000000
O       11.10420941      13.98970494      11.51828245      -0.77396875       0.41621749      -0.99165042       0.01367528      -2.13570259       1.22506490       3.38155535       0.00000000
Cl      15.12862532       9.92618401      10.11435155       1.51096582      -3.21648131      -1.71972161       0.01390666      -0.54783169      -0.04724432       0.56190686       0.00000000
Cl      13.82072888      11.15816532      16.62267216      -0.08094549      -0.36850088       2.49332885       0.00391697      -0.04735862      -0.18034572      -0.63085591       0.00000000
O       10.62119216      11.36057834      14.32941414       1.03937866      -0.70646469      -2.32436018       0.01677220      -0.59817403       0.40115012      -0.25474022       0.00000000
O       14.54191698      12.36585590       8.11665431      -1.98953026      -1.75732734       0.90515331       0.03957499       0.54076877      -0.11231474       0.13916952       0.00000000
O       10.68711831       9.73754798      10.74196637       0.60312963       2.03350610       2.23076729       0.03672161      -1.78184394      -1.02529992       0.23078189       0.00000000
Cl      14.09557078      14.78417055       8.74498404      -2.63048688       4.18070984       0.32690404       0.11150047      -0.10449867       0.84990746      -0.06581219       0.00000000
Cl      12.82118716      14.47625983      14.28860833       3.48850895       0.84897882       0.95915252       0.01835794       0.44819757       0.33084388       0.07109124       0.00000000
Cl      10.73537783      10.75744480       8.19492481       1.62936169       3.42848373       0.80734228       0.04625292       0.22412590       0.96075606      -0.02243314       0.00000000
Cl      10.58100934       8.35422327      14.08791691       0.86384266      -2.39087309       0.64455496       0.03014540       0.30505036      -0.40653789      -0.05694428       0.00000000
O       16.01438682      13.97241264      11.41765505       1.56377481      -1.45747710       1.18413817       0.02318884       1.35459930       1.28287554      -2.66854431       0.00000000
25
Lattice="25.1 0.0 0.0 0.0 25.1 0.0 0.0 0.0 25.1" Properties=species:S:1:pos:R:3:momenta:R:3:c_unc:R:1:forces:R:3:magmoms:R:1 step=45.0 target_atoms="18 19 22 20" energy=-69.71367617 stress="-0.0006104202790773865 -4.110988710290386e-06 2.915216674218993e-05 -4.110988710290386e-06 -0.00047250170185481717 0.00016638643114570657 2.915216674218993e-05 0.00016638643114570657 -0.0007277551269084154" dipole="_JSON [[0.0, 0.0, 0.0]]" magmom=4.6694093 free_energy=-69.86430906 pbc="T T T"
Ag      12.49859986      12.54564931      12.57243906      -1.61773274      -0.58294297       1.07079462       0.00926347      -0.17949961      -0.09881544       0.22096194       0.00000000
Ag      14.69582615      12.58693743      10.43389233       3.71041571      -0.22167760      -3.33049419       0.00822902      -0.03927437      -0.42031083      -0.80143949       0.00000000
Ag      14.57194571      10.51736637      12.62700481      -1.26952923       0.80359007       2.18011870       0.00203727       0.07840955       0.01508726      -0.50377955       0.00000000
Ag      14.57956250      14.61519672      12.56974429      -3.27080033       1.26888538       2.98107693       0.00855096      -1.12556415       0.39895379       0.98442811       0.00000000
Ag      14.65533908      12.56089219      14.61154380       1.06160335       0.03677922       1.04338734       0.00607880      -0.61000140      -0.03874113       0.81641510       0.00000000
Ag      16.64946916      12.59214510      12.54658835       0.55667606       0.34033048      -1.43614123       0.00177756       1.14147017      -2.04466611       1.45785565       0.00000000
Ag      10.49970087      12.48994274      10.48800943      -1.10914301      -4.82146997      -2.68603770       0.00871205      -0.93363001      -1.84321932      -1.69518693       0.00000000
Ag      12.53477852      14.61624690      10.50660341       2.38906737       1.91249890      -2.65110382       0.00953157       1.74187361       0.71722958      -1.91445011       0.00000000
Ag      12.47731589      10.46084153      10.45756426       0.28812169      -1.26507949      -2.36872676       0.00796543       2.80094890      -0.04539592      -0.56728329       0.00000000
Ag      12.53244311      12.50561484       8.40909925      -1.29483021      -2.36177428      -2.12836394       0.00779100      -1.12751651      -0.22731501      -0.21681551       0.00000000
Ag      10.45391606      10.53357992      12.52610801      -1.93231000       1.49765834      -0.56491700       0.00247660       0.11455625       0.53163074       1.12009337       0.00000000
Ag      12.48618114      10.49744774      14.59563472      -1.87700482       0.13183545       0.54660049       0.00719673       0.68878863       0.00613121       1.16888309       0.00000000
Ag      12.55206338       8.47135169      12.56911540       0.22930333       0.89924500       1.03336121       0.00810763      -0.18076350       0.04054029      -0.06701107       0.00000000
O       16.69794176      12.41932819      14.44298797       0.62112529      -0.33618892       1.22636434       0.00412137       0.83987125      -0.61851557       1.01352431       0.00000000
O       11.06602635      14.01162005      11.51514629      -1.67961187       1.00237954       0.73882956       0.00384647      -1.50798874       0.98759107       2.64727740       0.00000000
Cl      15.14829758       9.88124305      10.09217487       1.32518065      -3.26515018      -1.48204831       0.00455478      -0.65000577       0.00687964       0.67804623       0.00000000