17
Lattice="25.1 0.0 0.0 0.0 25.1 0.0 0.0 0.0 25.1" Properties=species:S:1:pos:R:3:momenta:R:3:forces:R:3:magmoms:R:1 target_atoms=0 energy=-38.9952754 stress="0.0003429849823458365 -7.729606610921782e-05 5.011280214531514e-05 -7.729606610921782e-05 0.0002486713167747155 3.160657779085226e-05 5.011280214531514e-05 3.160657779085226e-05 0.0002511213462839715" dipole="_JSON [[0.0, 0.0, 0.0]]" magmom=0.2026586 free_energy=-39.08454706 pbc="T T T"
Ag      12.55000000      12.55000000      12.55000000       0.01147764       1.76750181       0.21396176      -0.61939498       0.68094016       0.38779789       0.00000000
Ag      14.60000000      12.55000000      10.50000000      -0.32749748       0.18903301       1.48412731      -0.17342107       1.35150294      -0.04407060       0.00000000
Ag      14.60000000      10.50000000      12.55000000       1.56546900       0.33432801      -2.98329693      -0.27922126       0.14467949       1.64527159       0.00000000
Ag      14.60000000      14.60000000      12.55000000      -0.48401358      -2.73137527      -0.53453783       0.00934412      -0.55972042      -0.26288351       0.00000000
Ag      14.60000000      12.55000000      14.60000000      -0.98289800      -0.37028545       0.26705432       1.14844910       0.15713138      -0.39544370       0.00000000
Ag      16.65000000      12.55000000      12.55000000       0.62327653       0.82394382       0.83266893      -0.24277266       0.15667087       1.21237847       0.00000000
Ag      10.50000000      12.55000000      10.50000000      -1.28861115      -0.22589180      -0.22435751       0.44098785       0.26895502       0.64541415       0.00000000
Ag      12.55000000      14.60000000      10.50000000      -0.59300079      -2.44322710       1.50891130      -0.26407870      -0.44747663       0.61320565       0.00000000
Ag      12.55000000      10.50000000      10.50000000       0.64503851       1.29516514      -2.47396987      -1.22949686       0.22826563      -0.06920860       0.00000000
Ag      12.55000000      12.55000000       8.45000000       0.52371809      -0.09336655      -1.20852814      -0.08153117       0.04027257       0.44270936       0.00000000
Ag      10.50000000      10.50000000      12.55000000       1.46720177       1.42953990       2.09237693       0.55066449       0.07680889      -0.31044305       0.00000000
Ag      12.55000000      10.50000000      14.60000000      -0.33650156      -0.46396956       2.17730130      -0.26800475      -0.48949279      -0.90113746       0.00000000
Ag      12.55000000       8.45000000      12.55000000       0.47897421      -0.76543383      -1.17241015      -0.12987248       0.40511845       0.32792905       0.00000000
O       16.86670084      12.36965922      14.73059315      -0.65341754      -1.02809204      -1.10583846      -0.74785695       0.22737546      -1.43953729       0.00000000
O       10.93476712      14.17390999      12.26501289      -0.49821687       1.69008894      -0.27711196       0.81755041      -0.84120542      -1.21185850       0.00000000
Cl      14.98911296      10.15951574      10.27601356       0.25184207      -0.82194689       1.29516719       1.25798205      -1.28526610      -1.66318201       0.00000000
Cl      13.81234482      11.18013359      16.43715128      -0.40284084       1.41398785       0.10848179      -0.18932714      -0.11455951       1.02305856       0.00000000
17
Lattice="25.1 0.0 0.0 0.0 25.1 0.0 0.0 0.0 25.1" Properties=species:S:1:pos:R:3:momenta:R:3:c_unc:R:1:forces:R:3:magmoms:R:1 step=5.0 target_atoms="0 1 8 2 3 7 10 4 6 11 5 9 12 13 16 15 14" energy=-38.98031777 stress="0.0003417438208070999 -8.393445407588861e-05 4.910666463271363e-05 -8.393445407588861e-05 0.000257698636117809 3.737328283451133e-05 4.910666463271363e-05 3.737328283451133e-05 0.00020618233078139296" dipole="_JSON [[0.0, 0.0, 0.0]]" magmom=0.3797671 free_energy=-39.0590114 pbc="T T T"
Ag      12.54994786      12.55810085      12.55108457      -0.03505619       1.77960472       0.26370641       0.01102768      -0.69708180       0.66332668       0.37123261       0.00000000
Ag      14.59842154      12.55132857      10.50683249      -0.36264121       0.39133821       1.51125156       0.44401830      -0.16142870       1.30262228      -0.10182180       0.00000000
Ag      14.60700134      10.50162556      12.53692024       1.50289605       0.38054196      -2.75768133       0.44873436      -0.32352191       0.17750291       1.91893360       0.00000000
Ag      14.59827430      14.58746306      12.54767766      -0.27197130      -2.76751973      -0.48389082       0.76397769       0.01536433      -0.51426363      -0.24704354       0.00000000
Ag      14.59599756      12.54841254      14.60106795      -0.77516822      -0.32994608       0.20109948       0.76552990       1.13396036       0.16595969      -0.44414804       0.00000000
Ag      16.65302649      12.55395054      12.55399880       0.70604364       0.90995045       0.92461985       0.86153585      -0.24672620       0.13995366       1.11002262       0.00000000
Ag      10.49425624      12.54907123      10.49849093      -1.23519609      -0.18257571      -0.44159616       0.76724854       0.45440109       0.28585796       0.66576907       0.00000000
Ag      12.54719024      14.58876402      10.50638899      -0.64330469      -2.48868377       1.29596941       0.76469138      -0.29796222      -0.39917693       0.61597605       0.00000000
Ag      12.55244852      10.50599955      10.48885594       0.42860819       1.34077677      -2.41582321       0.44783751      -1.24303314       0.23827796      -0.05061859       0.00000000
Ag      12.55217806      12.54978145       8.44431826       0.43290735      -0.00251726      -1.28464513       0.86208619      -0.07950350       0.03889721       0.45345853       0.00000000
Ag      10.50682624      10.50604215      12.55963275       1.53481244       1.22485362       2.13914417       0.76496434       0.56934340       0.08773344      -0.31517980       0.00000000
Ag      12.54836076      10.49740619      14.60975275      -0.38122502      -0.67683194       2.10199467       0.76948979      -0.26983162      -0.49315918      -0.95065436       0.00000000
Ag      12.55198464       8.44635219      12.54486870       0.39463920      -0.82992550      -1.08186364       0.86252338      -0.12634982       0.42800523       0.33896722       0.00000000
O       16.84668373      12.33810167      14.69668157      -0.65079815      -1.02823203      -1.10377484       1.00000000      -0.68794236       0.23787777      -1.33508466       0.00000000
O       10.91946158      14.22580868      12.25654446      -0.49909030       1.69158396      -0.27467857       1.00000000       0.88541200      -0.93274853      -1.23401577       0.00000000
Cl      14.99263020      10.14809822      10.29393256       0.25597929      -0.82654108       1.29198238       1.00000000       1.28604350      -1.29024217      -1.87424103       0.00000000
Cl      13.80677445      11.19972138      16.43869344      -0.40143498       1.41412342       0.11418578       1.00000000      -0.21114340      -0.13642434       1.07844791       0.00000000
17
Lattice="25.1 0.0 0.0 0.0 25.1 0.0 0.0 0.0 25.1" Properties=species:S:1:pos:R:3:momenta:R:3:c_unc:R:1:forces:R:3:magmoms:R:1 step=10.0 target_atoms="15 14 13" energy=-39.02280523 stress="0.0003379637444276456 -8.734714274517518e-05 5.127143220888023e-05 -8.734714274517518e-05 0.00026861383720922665 4.305936006328223e-05 5.127143220888023e-05 4.305936006328223e-05 0.00015875229153761972" dipole="_JSON [[0.0, 0.0, 0.0]]" magmom=0.540024 free_energy=-39.08996791 pbc="T T T"
Ag      12.54905078      12.56687251      12.55248750      -0.35235990       2.05889603       0.35232448       0.00146965      -0.74648501       0.61911377       0.36258957       0.00000000
Ag      14.59673768      12.55440442      10.51371128      -0.37247015       0.94478625       1.50543988       0.00297891      -0.14767111       1.21236754      -0.16244640       0.00000000
Ag      14.61342875      10.50353081      12.52631118       1.31574716       0.45703168      -1.90523227       0.00335732      -0.34773319       0.21263455       2.11755065       0.00000000
Ag      14.59703054      14.57469613      12.54529308      -0.27261835      -2.83216399      -0.55988806       0.00502927       0.02360266      -0.46337403      -0.22970850       0.00000000
Ag      14.59349641      12.54688087      14.60124170      -0.33818321      -0.34623356      -0.12519633       0.00549392       1.08217492       0.16511740      -0.47423636       0.00000000
Ag      16.65608830      12.55809977      12.55941904       0.63671862       0.91096024       1.43624042       0.00707737      -0.25291927       0.13715171       0.92908962       0.00000000
Ag      10.48923191      12.54848944      10.49696463      -0.97275892      -0.07705903      -0.23261903       0.00283553       0.46441952       0.29105321       0.66833404       0.00000000
Ag      12.54380436      14.57695932      10.51287311      -0.85105019      -2.68946558       1.55337910       0.00297893      -0.31578147      -0.34398983       0.60759518       0.00000000
Ag      12.55316889      10.51202611      10.47794202      -0.10957817       1.30510667      -2.37388122       0.00303728      -1.21197188       0.24400492      -0.03875342       0.00000000
Ag      12.55394861      12.54995097       8.43899926       0.34402223       0.07646391      -1.05128182       0.00460718      -0.07834584       0.03232695       0.46752699       0.00000000
Ag      10.51422450      10.51158325      12.56913470       1.71644429       1.20830020       2.03492480       0.00505061       0.58282139       0.09609394      -0.32009828       0.00000000
Ag      12.54657564      10.49398095      14.61817667      -0.39985159      -0.82736822       1.59765386       0.00452564      -0.25143723      -0.48169439      -0.95814599       0.00000000
Ag      12.55367086       8.44325427      12.54016241       0.34694491      -0.52287256      -0.98585271       0.00426662      -0.12168692       0.45284659       0.34525940       0.00000000
O       16.81967749      12.30746056      14.65532130      -1.09307377      -0.96960087      -1.56911997       0.10063012      -0.59724013       0.22629876      -1.16038619       0.00000000
O       10.91119055      14.27150561      12.24062566      -0.04035857       1.29262639      -0.76313353       0.03577724       0.91397490      -0.98846087      -1.23143891       0.00000000
Cl      14.99978542      10.13266272      10.30639875       0.77281472      -1.39131212       0.51335420       0.02654846       1.25851151      -1.25235435      -2.01535440       0.00000000
Cl      13.80171536      11.21922215      16.44347734      -0.33038912       1.40190455       0.57288819       0.00690093      -0.25423285      -0.15913587       1.09262302       0.00000000
17
Lattice="25.1 0.0 0.0 0.0 25.1 0.0 0.0 0.0 25.1" Properties=species:S:1:pos:R:3:momenta:R:3:c_unc:R:1:forces:R:3:magmoms:R:1 step=20.0 target_atoms="12 6 1 0 7 2 9 11 3 10 4 5 14 16 13 15" energy=-39.38303856 stress="0.00028420404722460425 -7.696014184655365e-05 5.895479235793378e-05 -7.696014184655365e-05 0.0002899599544574755 7.144858969596069e-05 5.895479235793378e-05 7.144858969596069e-05 1.1233006253089374e-05" dipole="_JSON [[0.0, 0.0, 0.0]]" magmom=0.5603641 free_energy=-39.44865201 pbc="T T T"
Ag      12.54303165      12.58731975      12.55737910      -0.95684083       2.38625186       0.70764202       0.01085596      -0.74491490       0.44840754       0.37955469       0.00000000
Ag      14.59364749      12.56765106      10.52712825      -0.29280919       1.91221037       1.42639257       0.01052143      -0.08355330       0.84590223      -0.28775024       0.00000000
Ag      14.62302237      10.50875447      12.51739024       0.75092698       0.72212840       0.04188544       0.01296131      -0.35868446       0.20350917       1.88270603       0.00000000
Ag      14.59456373      14.54860362      12.53937093      -0.26007365      -2.86140155      -0.73114433       0.01631228       0.04483952      -0.32213592      -0.21506067       0.00000000
Ag      14.59458646      12.54353044      14.59655784       0.55282226      -0.37097894      -0.96152639       0.01953389       0.54984417       0.11760385      -0.36401027       0.00000000
Ag      16.66046606      12.56648454      12.57780031       0.29988618       0.92668691       2.55395023       0.02832641      -0.28847910       0.28894615      -0.40186151       0.00000000
Ag      10.48220639      12.54902083      10.49704249      -0.57001880       0.18772180       0.24495071       0.01007939       0.46252801       0.24874584       0.61595871       0.00000000
Ag      12.53396430      14.55165571      10.52932650      -1.33343357      -2.84563002       2.06529648       0.01135606      -0.24642993      -0.19339427       0.46199172       0.00000000
Ag      12.54696831      10.52362795      10.45697241      -1.25025403       1.24943247      -2.21042760       0.00997224      -0.95762301       0.22322357      -0.02011455       0.00000000
Ag      12.55631566      12.55132199       8.43140541       0.17484051       0.22285702      -0.61942521       0.01305462      -0.06231102       0.00803135       0.48796957       0.00000000
Ag      10.53170557      10.52221799      12.58682176       2.11782236       1.12128328       1.84684738       0.01670996       0.56411550       0.08301812      -0.34778767       0.00000000
Ag      12.54243601      10.48509230      14.62740409      -0.53526828      -1.14481587       0.37695355       0.01411846      -0.09477317      -0.37824007      -0.80054419       0.00000000
Ag      12.55634323       8.44157495      12.53200408       0.24206178       0.17106185      -0.80826262       0.01006974      -0.09512552       0.49907705       0.34067062       0.00000000
O       16.73189760      12.25116387      14.53170716      -1.70008397      -0.87444148      -2.39125755       0.13643255      -0.00299316      -0.00647072       0.15142660       0.00000000
O       10.94029295      14.32056031      12.15657715       0.98945087       0.31675400      -1.97568359       0.05587806       0.77067021      -0.96217759      -1.04368375       0.00000000
Cl      15.03659251      10.07851788      10.29643667       1.90668965      -2.51131470      -1.32389892       0.13957108       0.92141306      -0.92423416      -1.70814822       0.00000000
Cl      13.79504156      11.25799262      16.47447653      -0.13571826       1.39219460       1.75770783       0.05588622      -0.37852290      -0.17981213       0.86868311       0.00000000
17
Lattice="25.1 0.0 0.0 0.0 25.1 0.0 0.0 0.0 25.1" Properties=species:S:1:pos:R:3:momenta:R:3:c_unc:R:1:forces:R:3:magmoms:R:1 step=30.0 target_atoms="8 16 15 13 14" energy=-39.54961862 stress="0.00013023440567732942 -5.0403213323433366e-05 0.00013084302147370344 -5.0403213323433366e-05 0.0002664579013684732 0.00014055992146955187 0.00013084302147370344 0.00014055992146955187 -0.00024818811162120787" dipole="_JSON [[0.0, 0.0, 0.0]]" magmom=0.0006291 free_energy=-39.6321919 pbc="T T T"
Ag      12.53143992      12.61077768      12.56508465      -1.57576975       2.73381850       0.95642775       0.00272347      -0.61149900       0.13815506       0.45685592       0.00000000
Ag      14.59123870      12.58860581      10.53922103      -0.21712749       2.61154440       1.20776201       0.00509987       0.01098358       0.37996586      -0.42816374       0.00000000
Ag      14.62745091      10.51587099      12.52525743       0.23669484       0.80107664       1.53678150       0.00643674      -0.29488275       0.05873442       1.02455980       0.00000000
Ag      14.59275147      14.52057582      12.53205446      -0.12755949      -3.30858467      -0.86810945       0.00368579       0.08019356      -0.12643855      -0.19930650       0.00000000
Ag      14.60031748      12.54084682      14.58519829       0.63690534      -0.22477032      -1.48513744       0.00634247      -0.41082485       0.07580002       0.01694618       0.00000000
Ag      16.66118156      12.57601170      12.59956910      -0.13691846       1.18664235       2.11492841       0.00938045      -0.13609964       0.83770317      -3.16680818       0.00000000
Ag      10.47829264      12.55202268      10.50135302      -0.29024043       0.45851428       0.67847325       0.00708909       0.40095207       0.07318324       0.44983825       0.00000000
Ag      12.52088555      14.52415930      10.55028027      -1.47522944      -3.19272419       2.47719538       0.00908806       0.37708608       0.06331643      -0.22772528       0.00000000
Ag      12.53207405      10.53592589      10.43676110      -1.94184033       1.45628157      -2.23694269       0.01054432      -0.57849498       0.15051796      -0.00672735       0.00000000
Ag      12.55738792      12.55390914       8.42745258       0.06193450       0.33932028      -0.25791776       0.00215558      -0.02992508      -0.02916817       0.49685865       0.00000000
Ag      10.55344079      10.53226376      12.60267877       2.67187282       1.08294596       1.63666650       0.00327726       0.49326756       0.05049677      -0.39136181       0.00000000
Ag      12.53747846      10.47353366      14.62746933      -0.52405393      -1.37983250      -0.30493589       0.00463591       0.15286326      -0.19583415      -0.49062273       0.00000000
Ag      12.55815392       8.44523160      12.52564557       0.15609687       0.62634003      -0.58706325       0.00344089      -0.04278236       0.53017665       0.30577992       0.00000000
O       16.63228458      12.19469772      14.40233016      -1.47812582      -0.98600286      -1.71311733       0.10281958       0.79748544      -0.73721447       2.80802451       0.00000000
O       11.02415997      14.31094765      12.00422420       1.64890416      -0.59564213      -2.88957356       0.10539593      -0.06303631      -0.70050619      -0.22122592       0.00000000
Cl      15.09847618      10.00017400      10.24087115       2.42412017      -3.00483836      -2.50179209       0.09892410       0.35798477      -0.39655033      -0.82052556       0.00000000
Cl      13.79249090      11.29654110      16.53114953      -0.06966355       1.39591101       2.23635467       0.03120289      -0.50327135      -0.17233772       0.39360384       0.00000000
17
Lattice="25.1 0.0 0.0 0.0 25.1 0.0 0.0 0.0 25.1" Properties=species:S:1:pos:R:3:momenta:R:3:c_unc:R:1:forces:R:3:magmoms:R:1 step=40.0 target_atoms="1 3 4 5 6 16 7 13 15 14" energy=-39.37090416 stress="-0.00014440567724953787 -4.570097269515719e-05 0.0002969204542271149 -4.570097269515719e-05 0.00016321998873596347 0.00017206093037504895 0.0002969204542271149 0.00017206093037504895 -0.0003088739865352054" dipole="_JSON [[0.0, 0.0, 0.0]]" magmom=9.65e-05 free_energy=-39.45522792 pbc="T T T"
Ag      12.51414035      12.63598851      12.57535094      -2.24587992       2.81031433       1.30435865       0.00911048      -0.31947266      -0.34914518       0.68015372       0.00000000
Ag      14.58904389      12.61440282      10.54848448      -0.26462520       3.01444788       0.81911656       0.01064759       0.13519457      -0.04422970      -0.56582931       0.00000000
Ag      14.62855919      10.52170095      12.54050310       0.09719867       0.33041218       1.32988387       0.00966509      -0.19448617      -0.07847271       0.32074985       0.00000000
Ag      14.59220281      14.48905504      12.52378032      -0.00087326      -3.60195363      -0.94377216       0.01073697       0.14304113       0.09508029      -0.10873747       0.00000000
Ag      14.60224175      12.53908801      14.57188017      -0.32789680      -0.17405216      -1.35364129       0.01415548      -1.01454700       0.07587253       0.31235417       0.00000000
Ag      16.65875919      12.59016814      12.60450660      -0.36437428       1.94174129      -1.03627418       0.01687068       0.03956391       0.92166862      -3.12645213       0.00000000
Ag      10.47709592      12.55626234      10.50970948      -0.00255882       0.48119574       1.16864160       0.01862375       0.19057439      -0.37409434       0.09948601       0.00000000
Ag      12.51075675      14.49629974      10.57052448      -0.53535272      -2.81306048       1.77203623       0.02912109       2.53695251       0.66590269      -2.22996180       0.00000000
Ag      12.51384943      10.54979200      10.41611754      -1.91097918       1.56488355      -2.32439475       0.00410547      -0.25382916       0.05221068       0.01567537       0.00000000
Ag      12.55786715      12.55694845       8.42748298       0.04497241       0.31606110       0.26890111       0.00616527       0.01217005      -0.06258660       0.46063771       0.00000000
Ag      10.58064467      10.54235076      12.61565308       3.30744681       1.13676637       1.19944247       0.00908516       0.39707187       0.01967161      -0.42924978       0.00000000
Ag      12.53363996      10.46054316      14.62219057      -0.28795971      -1.45106848      -0.79878249       0.00999989       0.36323943      -0.01240964      -0.17177545       0.00000000
Ag      12.55943015       8.45312178      12.52116397       0.13132859       1.09576601      -0.39984533       0.00935339       0.00872938       0.52370331       0.25735813       0.00000000
O       16.57195366      12.11494446      14.39028279      -0.39338341      -1.64549892       1.32455392       0.03830362       1.17707308      -1.02312326       2.63324400       0.00000000
O       11.11749870      14.24846104      11.82706806       1.21663757      -1.54865675      -2.71483165       0.11035385      -2.51716672      -0.26282737       1.97644544       0.00000000
Cl      15.15994647       9.91592277      10.17328452       1.74102726      -2.88991013      -1.87064317       0.08761082      -0.10076881       0.03795278      -0.07536397       0.00000000
Cl      13.78873214      11.33548507      16.59490385      -0.20472801       1.43261210       2.25525061       0.01936222      -0.60333980      -0.18517369      -0.04873449       0.00000000
17
Lattice="25.1 0.0 0.0 0.0 25.1 0.0 0.0 0.0 25.1" Properties=species:S:1:pos:R:3:momenta:R:3:c_unc:R:1:forces:R:3:magmoms:R:1 step=50.0 target_atoms="9 7 11 2 12 16 5 0 15 13 14" energy=-39.30153677 stress="-0.00021071087021069581 -8.567439957491109e-05 0.000300732006537091 -8.567439957491109e-05 6.391636769039041e-05 8.107578048114283e-05 0.000300732006537091 8.107578048114283e-05 2.4311046294353718e-05" dipole="_JSON [[0.0, 0.0, 0.0]]" magmom=-5.64e-05 free_energy=-39.38275399 pbc="T T T"
Ag      12.49138760      12.66048608      12.58863677      -2.74568261       2.56038046       1.62642418       0.01779459      -0.02632942      -0.70919164       0.95519049       0.00000000
Ag      14.58692957      12.64064194      10.55422628      -0.17289040       2.56886125       0.43319283       0.00686960       0.23985584      -0.39699477      -0.66184180       0.00000000
Ag      14.62809803      10.52396024      12.55258591      -0.16014289       0.14766200       1.14867727       0.01239754      -0.06693131      -0.08582284       0.00597704       0.00000000
Ag      14.59239652      14.45624708      12.51489380       0.02310240      -3.56274867      -1.00451295       0.00587971       0.20839116       0.32583243       0.06879936       0.00000000
Ag      14.59506988      12.53784979      14.56199749      -1.09985167      -0.12215992      -0.81163184       0.00967852      -0.43908575      -0.10493661       0.25180112       0.00000000
Ag      16.65526908      12.61071528      12.58430942      -0.43491701       2.45250335      -2.91037891       0.01432082      -0.10001979       0.01976594      -0.02463037       0.00000000
Ag      10.47733377      12.55830051      10.52056828      -0.03025736      -0.12760479       1.14970972       0.00876573      -0.18602018      -1.05106306      -0.44176986       0.00000000
Ag      12.51882306      14.47464378      10.57631645       2.36330008      -1.85586487      -0.53069153       0.01064450       3.66068075       1.29139826      -3.06639115       0.00000000
Ag      12.49665802      10.56507069      10.39513365      -1.72293099       1.77963056      -2.28421394       0.00660468      -0.01646944      -0.05265254       0.04678287       0.00000000
Ag      12.55814521      12.55944819       8.43218594       0.01869614       0.22871094       0.75498195       0.01055461       0.02693815      -0.08583750       0.37959343       0.00000000
Ag      10.61291467      10.55262803      12.62439256       3.76955081       1.12339347       0.70134795       0.00880246       0.27785815      -0.03669300      -0.44696177       0.00000000
Ag      12.53207166      10.44682818      14.61405533      -0.04562389      -1.55378352      -0.94920267       0.01070006       0.52595499       0.14255700       0.11632197       0.00000000
Ag      12.56080149       8.46535566      12.51820700       0.17758787       1.57145406      -0.25612072       0.01278763       0.01999351       0.49008064       0.20105546       0.00000000
O       16.58041915      11.98872337      14.53165976       0.56546045      -2.38099325       2.82465766       0.06117708       0.64846349      -0.12684209      -0.43362858       0.00000000
O       11.11649882      14.13905264      11.72535595      -1.25964444      -1.98764492      -0.53470711       0.06893919      -3.73452079       0.30797791       3.10088067       0.00000000
Cl      15.20239783       9.84031130      10.12675490       1.13647945      -2.35589335      -1.27537158       0.05742243      -0.35713731       0.29366169       0.31609981       0.00000000
Cl      13.78043760      11.37608822      16.65347008      -0.38223593       1.51409721       1.91783971       0.01305444      -0.68162204      -0.22123983      -0.36727870       0.00000000
17
Lattice="25.1 0.0 0.0 0.0 25.1 0.0 0.0 0.0 25.1" Properties=species:S:1:pos:R:3:momenta:R:3:c_unc:R:1:forces:R:3:magmoms:R:1 step=60.0 target_atoms="7 8 10 3 4 6 1 15 14 13" energy=-39.3940969 stress="9.51422633566368e-05 -7.001403499695856e-05 9.627750024399808e-05 -7.001403499695856e-05 4.579661758100222e-05 -6.640379008081954e-05 9.627750024399808e-05 -6.640379008081954e-05 0.00031063821150472754" dipole="_JSON [[0.0, 0.0, 0.0]]" magmom=-0.0985979 free_energy=-39.48466252 pbc="T T T"
Ag      12.46475293      12.68196478      12.60541081      -3.10200509       2.18270450       2.05450452       0.00788168       0.06728191      -0.62873837       0.95532968       0.00000000
Ag      14.58554221      12.66001635      10.55644850      -0.10468478       1.55969892       0.04395731       0.01614649       0.24724409      -0.70179255      -0.76553463       0.00000000
Ag      14.62548418      10.52516808      12.56197898      -0.43241738       0.10026008       0.81822307       0.00446002       0.00604981      -0.04854505      -0.12228212       0.00000000
Ag      14.59248504      14.42491044      12.50566437      -0.01320912      -3.28788392      -1.02133915       0.01342677       0.19863546       0.56938628       0.26554880       0.00000000
Ag      14.58735273      12.53528371      14.55720544      -0.35260417      -0.52501618      -0.17386418       0.01497665       0.30428364      -0.38045000       0.26411184       0.00000000
Ag      16.65052366      12.63251240      12.56017136      -0.58744255       2.26107693      -2.22931864       0.00877854      -0.05924024      -0.49038595       1.16237189       0.00000000
Ag      10.47541726      12.55131648      10.52816396      -0.44264238      -1.49158254       0.41447877       0.01549282      -0.37461433      -1.51825950      -1.01711052       0.00000000
Ag      12.55283208      14.46251160      10.56117955       4.75454436      -0.92979362      -2.50049203       0.01013902       0.96601487       0.75113860      -0.98982193       0.00000000
Ag      12.48180226      10.58187800      10.37544464      -1.45308301       1.89191501      -2.02994862       0.01166367       0.14220756      -0.13921335       0.09505634       0.00000000
Ag      12.55844413      12.56169867       8.44101769       0.05758194       0.28031282       1.14730502       0.00392250       0.03511994      -0.05841102       0.28135195       0.00000000
Ag      10.64853621      10.56267610      12.62791024       4.03550514       1.07277750       0.05039770       0.01341050       0.14099923      -0.11374251      -0.45797879       0.00000000
Ag      12.53339008      10.43271640      14.60558472       0.35315037      -1.53193190      -0.88491064       0.00343937       0.64611174       0.22983783       0.34427468       0.00000000
Ag      12.56290907       8.48160693      12.51603230       0.29148931       1.96848995      -0.23067849       0.00245285      -0.00522098       0.43160809       0.15324891       0.00000000
O       16.61083578      11.84318267      14.68329393       0.20187003      -2.22195260       1.96875609       0.07345175      -0.15327320       0.51042707      -1.64565303       0.00000000
O       10.96864658      14.02827664      11.76916494      -3.22239838      -1.41377626       1.78657677       0.04839175      -0.97530711       1.37064838       1.54289548       0.00000000
Cl      15.22601221       9.78423977      10.10081420       0.47447292      -1.57114386      -0.52173255       0.02321015      -0.47057962       0.45203341       0.49761822       0.00000000
Cl      13.76852216      11.41978269      16.69860562      -0.45812722       1.65584517       1.30808506       0.00756234      -0.71571278      -0.23554134      -0.56342677       0.00000000
17
Lattice="25.1 0.0 0.0 0.0 25.1 0.0 0.0 0.0 25.1" Properties=species:S:1:pos:R:3:momenta:R:3:c_unc:R:1:forces:R:3:magmoms:R:1 step=75.0 target_atoms="6 7 9 15 5 16 0 14 13" energy=-39.07710598 stress="0.00032604567637440837 -2.7178957322605818e-05 2.437044673670475e-05 -2.7178957322605818e-05 0.00017684606448602598 -5.445100675382418e-05 2.437044673670475e-05 -5.445100675382418e-05 0.00046337617236562795" dipole="_JSON [[0.0, 0.0, 0.0]]" magmom=-0.4617655 free_energy=-39.17906461 pbc="T T T"