17
Lattice="25.1 0.0 0.0 0.0 25.1 0.0 0.0 0.0 25.1" Properties=species:S:1:pos:R:3:momenta:R:3:forces:R:3:magmoms:R:1 target_atoms=0 energy=-38.9952754 stress="0.0003429849823458365 -7.729606610921782e-05 5.011280214531514e-05 -7.729606610921782e-05 0.0002486713167747155 3.160657779085226e-05 5.011280214531514e-05 3.160657779085226e-05 0.0002511213462839715" dipole="_JSON [[0.0, 0.0, 0.0]]" magmom=0.2026586 free_energy=-39.08454706 pbc="T T T"
Ag      12.55000000      12.55000000      12.55000000       0.57539057      -1.23253127       1.30539377      -0.61939498       0.68094016       0.38779789       0.00000000
Ag      14.60000000      12.55000000      10.50000000       1.80654947      -1.33083525      -0.32731675      -0.17342107       1.35150294      -0.04407060       0.00000000
Ag      14.60000000      10.50000000      12.55000000       0.68355661      -0.52678932      -3.09066377      -0.27922126       0.14467949       1.64527159       0.00000000
Ag      14.60000000      14.60000000      12.55000000      -0.35823104       3.52006350      -3.39289715       0.00934412      -0.55972042      -0.26288351       0.00000000
Ag      14.60000000      12.55000000      14.60000000       3.88887224       2.41275796       1.04248614       1.14844910       0.15713138      -0.39544370       0.00000000
Ag      16.65000000      12.55000000      12.55000000      -1.27607106      -2.99442770       1.95874774      -0.24277266       0.15667087       1.21237847       0.00000000
Ag      10.50000000      12.55000000      10.50000000       1.87319150      -1.49517908      -1.19890163       0.44098785       0.26895502       0.64541415       0.00000000
Ag      12.55000000      14.60000000      10.50000000      -0.40340389       0.07516976      -0.83584252      -0.26407870      -0.44747663       0.61320565       0.00000000
Ag      12.55000000      10.50000000      10.50000000      -0.56927575       4.75980774      -1.80181729      -1.22949686       0.22826563      -0.06920860       0.00000000
Ag      12.55000000      12.55000000       8.45000000       0.50587264       1.83129427       3.31947365      -0.08153117       0.04027257       0.44270936       0.00000000
Ag      10.50000000      10.50000000      12.55000000       0.82381799      -6.64660148       4.25068024       0.55066449       0.07680889      -0.31044305       0.00000000
Ag      12.55000000      10.50000000      14.60000000      -4.28180648       0.50924511       2.14359487      -0.26800475      -0.48949279      -0.90113746       0.00000000
Ag      12.55000000       8.45000000      12.55000000      -1.42971572      -0.07159713      -1.34288573      -0.12987248       0.40511845       0.32792905       0.00000000
O       16.86670084      12.36965922      14.73059315      -0.26988812       1.75648205      -0.62293427      -0.74785695       0.22737546      -1.43953729       0.00000000
O       10.93476712      14.17390999      12.26501289       0.86720868       0.82562440      -0.11199312       0.81755041      -0.84120542      -1.21185850       0.00000000
Cl      14.98911296      10.15951574      10.27601356      -0.80933648      -0.41074615       0.37887166       1.25798205      -1.28526610      -1.66318201       0.00000000
Cl      13.81234482      11.18013359      16.43715128      -1.62673116      -0.98173742      -1.67399584      -0.18932714      -0.11455951       1.02305856       0.00000000
17
Lattice="25.1 0.0 0.0 0.0 25.1 0.0 0.0 0.0 25.1" Properties=species:S:1:pos:R:3:momenta:R:3:c_unc:R:1:forces:R:3:magmoms:R:1 step=5.0 target_atoms="0 8 2 1 6 7 10 3 4 11 5 9 12 15 14 13 16" energy=-38.99126178 stress="0.00031506360375421603 -7.076869586536911e-05 3.1177505245993416e-05 -7.076869586536911e-05 0.0002478359844008529 2.1490458388294068e-05 3.1177505245993416e-05 2.1490458388294068e-05 0.00019071950372576553" dipole="_JSON [[0.0, 0.0, 0.0]]" magmom=0.2411776 free_energy=-39.0769823 pbc="T T T"
Ag      12.55254232      12.54449502      12.55605526       0.54747370      -1.18380607       1.35592456       0.01349551      -0.62442050       0.71887930       0.37402053       0.00000000
Ag      14.60813145      12.54443240      10.49862863       1.76689397      -1.11208963      -0.27022550       0.44666997      -0.16727422       1.42833052      -0.03050529       0.00000000
Ag      14.60298289      10.49770948      12.53643579       0.61874668      -0.47738436      -2.86210712       0.44611278      -0.32486270       0.17426302       1.86605920       0.00000000
Ag      14.59882342      14.61585117      12.53465781      -0.16240148       3.43236691      -3.34604516       0.76723667       0.00631108      -0.61154143      -0.25099351       0.00000000
Ag      14.61815784      12.56109514      14.60457892       4.08191379       2.46073971       0.96317172       0.76762735       1.03790450       0.11766522      -0.39929571       0.00000000
Ag      16.64439983      12.53658573      12.55911469      -1.17879199      -2.89432503       2.04289656       0.86155104      -0.22636471       0.22707316       1.08444664       0.00000000
Ag      10.50863738      12.54330384      10.49408747       1.91621186      -1.44381830      -1.39294493       0.76370212       0.41081028       0.26695975       0.68548191       0.00000000
Ag      12.54806856      14.60022101      10.49574526      -0.44328113       0.02328544      -1.02663021       0.76499131      -0.25490645      -0.43237412       0.65578224       0.00000000
Ag      12.54693829      10.52173287      10.49191130      -0.77282885       4.77688496      -1.74687574       0.43904823      -1.26629058       0.17411742      -0.05534000       0.00000000
Ag      12.55210122      12.55855012       8.46486140       0.41821035       1.92594029       3.19316660       0.86164322      -0.07735495       0.03781090       0.36423468       0.00000000
Ag      10.50386600      10.46928452      12.56946193       0.87005646      -6.84169256       4.29877701       0.76674855       0.54551165       0.14343549      -0.35407702       0.00000000
Ag      12.53040170      10.50184841      14.60959246      -4.32344462       0.30393955       2.06351021       0.76763425      -0.35594205      -0.54720210      -1.12661890       0.00000000
Ag      12.54330197       8.44948291      12.54409573      -1.50863424      -0.15557509      -1.25003189       0.86165519      -0.10441339       0.40122632       0.33344730       0.00000000
O       16.85846247      12.42358676      14.71151491      -0.26672210       1.75685763      -0.61991265       1.00000000      -0.68657322       0.17454539      -1.32147939       0.00000000
O       10.96137748      14.19925805      12.26161529       0.86638559       0.82571068      -0.10934570       1.00000000       0.82335858      -0.86589331      -1.20526357       0.00000000
Cl      14.97792821      10.15379834      10.28123330      -0.80523591      -0.41459669       0.37461646       1.00000000       1.30834628      -1.37648298      -1.82845111       0.00000000
Cl      13.78982174      11.16652676      16.41400006      -1.62455209      -0.98243745      -1.66794423       1.00000000      -0.04383959      -0.03081253       1.20855199       0.00000000
17
Lattice="25.1 0.0 0.0 0.0 25.1 0.0 0.0 0.0 25.1" Properties=species:S:1:pos:R:3:momenta:R:3:c_unc:R:1:forces:R:3:magmoms:R:1 step=10.0 target_atoms="11 4 5 15 14 16 13" energy=-39.03610037 stress="0.000276078482395491 -6.326557801685282e-05 1.2987893924959215e-05 -6.326557801685282e-05 0.00024677135770623276 9.630785894438637e-06 1.2987893924959215e-05 9.630785894438637e-06 0.00012293042317747444" dipole="_JSON [[0.0, 0.0, 0.0]]" magmom=-0.5819641 free_energy=-39.11519889 pbc="T T T"
Ag      12.55438932      12.53998986      12.56242201       0.27360009      -0.79481291       1.44071143       0.00138039      -0.60820865       0.73825466       0.36594009       0.00000000
Ag      14.61611410      12.54079042      10.49757446       1.74056934      -0.49293186      -0.18561586       0.00467646      -0.15565633       1.45492611      -0.02636232       0.00000000
Ag      14.60541781      10.49575362      12.52556441       0.44310456      -0.37629328      -1.90928336       0.00772891      -0.35497674       0.19504080       1.99390795       0.00000000
Ag      14.59803032      14.63094082      12.51924812      -0.19325093       3.18316573      -3.42157848       0.00536674       0.00399086      -0.65663285      -0.24017919       0.00000000
Ag      14.63760725      12.57216607      14.60817788       4.43870194       2.39538687       0.61881374       0.01030128       0.85581436       0.07068597      -0.37431051       0.00000000
Ag      16.63897974      12.52362172      12.56956976      -1.19398224      -2.79198094       2.52972732       0.01037587      -0.21178774       0.29064441       0.86623641       0.00000000
Ag      10.51788192      12.53701393      10.48829030       2.13925502      -1.31867104      -1.15341382       0.00963338       0.37114309       0.25760744       0.70506733       0.00000000
Ag      12.54576026      14.59981871      10.49190700      -0.57011357      -0.19589262      -0.64228851       0.00928021      -0.22643722      -0.40839981       0.68000385       0.00000000
Ag      12.54230602      10.54332764      10.48413715      -1.25593929       4.70266942      -1.65690691       0.00587714      -1.26035531       0.10866048      -0.04232762       0.00000000
Ag      12.55383552      12.56748675       8.47955315       0.34435250       1.99932149       3.23651129       0.00463583      -0.06832519       0.03594244       0.28376152       0.00000000
Ag      10.50816883      10.43807751      12.58883006       1.01309322      -6.86265985       4.21123053       0.00671663       0.52414672       0.20548801      -0.39733660       0.00000000
Ag      12.51063391      10.50300005      14.61778041      -4.34366163       0.21291694       1.54215816       0.01015829      -0.44955845      -0.60516306      -1.33444584       0.00000000
Ag      12.53630732       8.44929090      12.53856857      -1.55858752       0.06797626      -1.17661201       0.00505342      -0.07133941       0.39148519       0.33602150       0.00000000
O       16.84260383      12.47804464      14.68460787      -0.75517438       1.78479952      -1.11609964       0.11220248      -0.55771827       0.12417116      -1.12517219       0.00000000
O       10.99484921      14.21832694      12.25068394       1.31775526       0.41817182      -0.60353181       0.02059700       0.79858751      -0.85926124      -1.16393840       0.00000000
Cl      14.96997386      10.14410723      10.28093242      -0.34727256      -0.97923907      -0.41637650       0.01572568       1.30247470      -1.40694715      -1.90555173       0.00000000
Cl      13.76828556      11.15312016      16.39365708      -1.49244980      -0.95192649      -1.29744558       0.05897804       0.10820608       0.06349743       1.37868575       0.00000000
17
Lattice="25.1 0.0 0.0 0.0 25.1 0.0 0.0 0.0 25.1" Properties=species:S:1:pos:R:3:momenta:R:3:c_unc:R:1:forces:R:3:magmoms:R:1 step=20.0 target_atoms="9 1 3 12 8 10 2 7 6 16 14 15 13" energy=-39.33073846 stress="0.00011376937950135891 -3.61564070077835e-05 -1.1580758175547083e-05 -3.61564070077835e-05 0.0002467909810109245 -2.0792645185002066e-05 -1.1580758175547083e-05 -2.0792645185002066e-05 -7.713100315887471e-05" dipole="_JSON [[0.0, 0.0, 0.0]]" magmom=0.0011629 free_energy=-39.41599127 pbc="T T T"
Ag      12.55475316      12.53645792      12.57593378      -0.15641608       0.02118888       1.47272682       0.00953492      -0.44229534       0.61307861       0.39174115       0.00000000
Ag      14.63102921      12.54253916      10.49661002       1.52867394       0.82812779      -0.03713776       0.01264098      -0.09463889       1.23769283      -0.02149785       0.00000000
Ag      14.60819752      10.49348803      12.51651282       0.18233891      -0.12600969      -0.10602746       0.02403687      -0.36859099       0.17992446       1.67982910       0.00000000
Ag      14.59618626      14.65737308      12.48749851      -0.21177951       2.60093245      -3.53017251       0.01341209       0.00643836      -0.70015045      -0.23967368       0.00000000
Ag      14.68084828      12.59406339      14.61008835       4.99580363       2.37514981      -0.22880746       0.00987499      -0.08192730      -0.09314713      -0.16391235       0.00000000
Ag      16.62744935      12.49937708      12.59786345      -1.33743855      -2.51127066       3.68468792       0.00858399      -0.20482222       0.32670121      -0.47076855       0.00000000
Ag      10.53926565      12.52564069      10.48086235       2.55354283      -1.18322653      -0.46346679       0.02603821       0.22972691       0.22320218       0.66567633       0.00000000
Ag      12.53987774      14.59580232      10.48990441      -0.70378533      -0.70887540       0.23478780       0.02499334      -0.02662517      -0.28804373       0.55088323       0.00000000
Ag      12.52691919      10.58515378      10.46953844      -2.04209669       4.45186522      -1.54843496       0.01798388      -1.00110428      -0.07899416      -0.01487524       0.00000000
Ag      12.55609355      12.58641319       8.50928285       0.15046835       2.15600974       3.23314490       0.01257258      -0.03783324       0.01280267       0.09600550       0.00000000
Ag      10.51871270      10.37683479      12.62601659       1.26272967      -6.53953257       3.95026308       0.02398058       0.40842408       0.31356106      -0.47607043       0.00000000
Ag      12.46994066      10.50336951      14.62587499      -4.56464354      -0.11002822       0.22635199       0.00798770      -0.50225109      -0.63077512      -1.51957748       0.00000000
Ag      12.52162200       8.45156926      12.52902802      -1.65320235       0.39732562      -0.90302457       0.01378465       0.02734916       0.35187325       0.30706331       0.00000000
O       16.76865596      12.58596394      14.58487534      -1.63325351       1.71645622      -2.11036716       0.16959755       0.31145225       0.11731892       0.11872060       0.00000000
O       11.10143238      14.21736127      12.18244310       2.11141415      -0.42015965      -1.58261961       0.04739729       0.45860789      -0.67556009      -0.84958688       0.00000000
Cl      14.97415169      10.09986035      10.24571468       0.57262079      -2.12935065      -2.07028933       0.08702673       1.00425362      -1.14531327      -1.52427584       0.00000000
Cl      13.73275622      11.12839362      16.37265093      -1.05497672      -0.81860239      -0.22161489       0.02982560       0.31383624       0.23582876       1.47031908       0.00000000
17
Lattice="25.1 0.0 0.0 0.0 25.1 0.0 0.0 0.0 25.1" Properties=species:S:1:pos:R:3:momenta:R:3:c_unc:R:1:forces:R:3:magmoms:R:1 step=25.0 target_atoms="0 4 5 15 14 13" energy=-39.38313549 stress="-2.4781799637155213e-05 -1.915819367322527e-05 3.838390799217434e-06 -1.915819367322527e-05 0.0002342555403240097 -3.9488343031999384e-05 3.838390799217434e-06 -3.9488343031999384e-05 -0.00024064669587269517" dipole="_JSON [[0.0, 0.0, 0.0]]" magmom=-9.16e-05 free_energy=-39.47347474 pbc="T T T"
Ag      12.55356458      12.53716964      12.58298022      -0.34995495       0.27496481       1.61893437       0.01192510      -0.27451741       0.43363524       0.43938284       0.00000000
Ag      14.63806182      12.54754524      10.49659286       1.56791807       1.34727736       0.02890844       0.00238905      -0.05488041       1.03740613      -0.03102084       0.00000000
Ag      14.60863272      10.49302995      12.51790378       0.01152930      -0.08088581       0.68368843       0.00259733      -0.36978701       0.13671903       1.32161778       0.00000000
Ag      14.59510271      14.66854930      12.47113833      -0.26626707       2.30422825      -3.65542705       0.00223201       0.01317771      -0.69643593      -0.24773701       0.00000000
Ag      14.70327413      12.60492095      14.60851947       4.80728920       2.38176735      -0.44438328       0.01347113      -0.93635960      -0.22193704       0.06104840       0.00000000
Ag      16.62098691      12.48835277      12.61405281      -1.50040810      -2.33110797       3.37366764       0.01448925      -0.17123380       0.21457067      -1.81064532       0.00000000
Ag      10.55117019      12.52042997      10.47943843       2.66917111      -1.11038822      -0.16529301       0.00366766       0.11603816       0.17928017       0.60300015       0.00000000
Ag      12.53681930      14.59207826      10.49166283      -0.61915997      -0.92758929       0.52355373       0.00480978       0.23033670      -0.16440892       0.28632739       0.00000000
Ag      12.51647126      10.60519792      10.46254291      -2.52580417       4.34187072      -1.52319309       0.00294470      -0.78011270      -0.20751199       0.00570422       0.00000000
Ag      12.55667217      12.59631285       8.52422221       0.10691207       2.18935390       3.32262924       0.00164716      -0.00979824      -0.00048662      -0.00793599       0.00000000
Ag      10.52474651      10.34751101      12.64337292       1.38113355      -6.33023839       3.66384334       0.00209446       0.30919491       0.36570730      -0.51654168       0.00000000
Ag      12.44875246      10.50223648      14.62517819      -4.73125312      -0.38089071      -0.52525157       0.00900826      -0.41412315      -0.58448387      -1.44081063       0.00000000
Ag      12.51420528       8.45379608      12.52510017      -1.59746026       0.57816001      -0.82331305       0.00156476       0.09626334       0.31870042       0.27870861       0.00000000
O       16.72050076      12.63822150      14.52304979      -1.46923347       1.69373167      -1.87725531       0.05271008       1.10868156       0.26334430       1.34008521       0.00000000
O       11.16934857      14.20012412      12.12891216       2.27856277      -0.67777848      -1.87293784       0.03303106       0.04739166      -0.47698536      -0.47917856       0.00000000
Cl      14.98526706      10.06661266      10.21211583       1.00257993      -2.63855623      -2.74034709       0.02413403       0.76447971      -0.88727041      -1.14085030       0.00000000
Cl      13.72013245      11.11830399      16.37405393      -0.76555489      -0.63391898       0.41217610       0.00675335       0.32524857       0.29015690       1.33884574       0.00000000
17
Lattice="25.1 0.0 0.0 0.0 25.1 0.0 0.0 0.0 25.1" Properties=species:S:1:pos:R:3:momenta:R:3:c_unc:R:1:forces:R:3:magmoms:R:1 step=35.0 target_atoms="2 10 8 6 7 13 11 16 14 15" energy=-39.13421958 stress="-0.00029609887189785666 7.677749032349381e-06 0.00010631328518259702 7.677749032349381e-06 0.0001515074473367325 -5.395267842370454e-05 0.00010631328518259702 -5.395267842370454e-05 -0.0004944232550369268" dipole="_JSON [[0.0, 0.0, 0.0]]" magmom=7.12e-05 free_energy=-39.23693287 pbc="T T T"
Ag      12.54894185      12.54160038      12.59921245      -0.62794156       0.64702911       1.94420167       0.00346522       0.22300920      -0.16774892       0.65821256       0.00000000
Ag      14.65261203      12.56290671      10.49783419       1.64321893       1.89025079       0.24080089       0.00966851       0.02047974       0.60022540      -0.05538552       0.00000000
Ag      14.60753685      10.49251954      12.52841786      -0.21590947      -0.08223922       1.36875292       0.01023477      -0.36405787       0.04671604       0.61018160       0.00000000
Ag      14.59211046      14.68638814      12.43670853      -0.40189887       1.60016981      -3.90259716       0.00901354       0.06537387      -0.66795555      -0.21285831       0.00000000
Ag      14.74035233      12.62588289      14.60413494       3.15744948       2.16306369      -0.45844114       0.00810145      -2.34364499      -0.50990048       0.51980131       0.00000000
Ag      16.60638634      12.46817007      12.63484429      -1.68277188      -2.13002947       1.02788515       0.00807398      -0.01673704      -0.17258274      -3.62165838       0.00000000
Ag      10.57603891      12.51032245      10.48015861       2.75261134      -1.12579641       0.32115772       0.01519282      -0.22384241       0.06426971       0.41469620       0.00000000
Ag      12.53285505      14.58269582      10.49759285      -0.16906365      -1.06785787       0.68626602       0.01800504       1.28532057       0.37657831      -0.97625519       0.00000000
Ag      12.49111698      10.64353637      10.44857607      -2.89346269       4.03609393      -1.55143950       0.01249303      -0.25178944      -0.53414506       0.05828431       0.00000000
Ag      12.55726929      12.61629887       8.55455589       0.03439172       2.18438022       3.31273304       0.00643193       0.06716276      -0.03103949      -0.25312872       0.00000000
Ag      10.53786056      10.29207313      12.67410319       1.46688750      -5.81451766       3.06411169       0.01064491       0.03337644       0.46873107      -0.61178346       0.00000000
Ag      12.40507979      10.49674035      14.61461990      -4.75605390      -0.76119870      -1.68274359       0.02087866      -0.00065867      -0.38862807      -0.93097531       0.00000000
Ag      12.50036255       8.46036703      12.51825941      -1.42025627       0.84966348      -0.68576861       0.00614915       0.25537038       0.22343398       0.20495835       0.00000000
O       16.67035582      12.74662938      14.46028225      -0.04095217       1.88954966      -0.05622135       0.02074279       2.29400926       0.77875435       2.86267557       0.00000000
O       11.31392667      14.14581484      12.00879591       2.34515217      -1.07853035      -1.93319938       0.04972670      -1.46815431      -0.02393174       0.93313245       0.00000000
Cl      15.01828862       9.98669571      10.12827941       1.18023691      -2.90619187      -3.00334056       0.05026595       0.27601828      -0.35474791      -0.37836204       0.00000000
Cl      13.70515712      11.10573354      16.39950540      -0.37163760      -0.29383913       1.30784219       0.03403473       0.14876421       0.29197109       0.77846459       0.00000000
17
Lattice="25.1 0.0 0.0 0.0 25.1 0.0 0.0 0.0 25.1" Properties=species:S:1:pos:R:3:momenta:R:3:c_unc:R:1:forces:R:3:magmoms:R:1 step=45.0 target_atoms="7 9 12 3 5 4 14 16 13 15" energy=-39.03440055 stress="-0.0003095126427150022 3.565899617950536e-05 0.00017582025997816886 3.565899617950536e-05 3.888465802783483e-05 3.0226299255208807e-05 0.00017582025997816886 3.0226299255208807e-05 -0.0003273416758123251" dipole="_JSON [[0.0, 0.0, 0.0]]" magmom=0.0002688 free_energy=-39.14410724 pbc="T T T"
Ag      12.54466411      12.54599071      12.62053448      -0.27858653       0.25005496       2.79638059       0.00912015       0.74032496      -0.81858439       0.95460820       0.00000000
Ag      14.66811303      12.58207990      10.50082857       1.75388001       2.23826334       0.42896131       0.00973479       0.06371265       0.21393846      -0.04856419       0.00000000
Ag      14.60500446      10.49200905      12.54260091      -0.34648479      -0.05784901       1.59761853       0.00416903      -0.35758588       0.02206663       0.14806855       0.00000000
Ag      14.58745222      14.69749543      12.40021810      -0.62743880       0.85187456      -4.10651392       0.01462347       0.17662503      -0.65272005      -0.05546282       0.00000000
Ag      14.75827050      12.64374679      14.60149394       0.89518216       1.72400521      -0.12008045       0.02021755      -1.57195103      -0.56169384       0.47828335       0.00000000
Ag      16.59103277      12.44821488      12.62932923      -1.67367480      -2.22930224      -1.92716694       0.01913621       0.07585108       0.09474124      -1.46319914       0.00000000
Ag      10.59944053      12.49972433      10.48425518       2.32952189      -1.20260757       0.57350266       0.00574128      -0.64517603       0.03541804       0.26104161       0.00000000
Ag      12.53853541      14.57527562      10.49840362       1.52723852      -0.44262010      -0.66679740       0.01034011       2.42693741       1.18084924      -2.47646530       0.00000000
Ag      12.46496804      10.67794255      10.43461962      -2.73639363       3.48590273      -1.50705787       0.00319367       0.28529959      -0.91579808       0.13504331       0.00000000
Ag      12.55743741      12.63581578       8.58427415       0.01261709       2.08973877       3.18665210       0.01075719       0.14270654      -0.05742719      -0.53783081       0.00000000
Ag      10.55058879      10.24168739      12.69900561       1.28011179      -5.22993620       2.38830809       0.00349456      -0.31415360       0.56237668      -0.73293495       0.00000000
Ag      12.36357988      10.48943996      14.59685774      -4.23766766      -0.77549368      -2.06987815       0.00719384       0.52083111      -0.17092725      -0.24391931       0.00000000
Ag      12.48849053       8.46847877      12.51237396      -1.16315071       0.90408912      -0.62052760       0.01125108       0.41496846       0.09094072       0.12658286       0.00000000
O       16.72841439      12.87869165      14.53344840       1.80044887       2.39377067       2.15901420       0.03865532       1.30172970       0.52455688       0.77616805       0.00000000
O       11.41009235      14.08372289      11.92532067       0.65981665      -0.95943757      -0.67276512       0.03124908      -3.07521373       0.22453772       2.40368693       0.00000000
Cl      15.05162373       9.90411974      10.04381362       1.13478912      -2.95107256      -2.96187635       0.06043356      -0.08718703       0.01722682       0.11334221       0.00000000
Cl      13.69637996      11.10074495      16.44061733      -0.33020917      -0.08938043       1.52222631       0.03183876      -0.09771923       0.21049835       0.16155145       0.00000000
17
Lattice="25.1 0.0 0.0 0.0 25.1 0.0 0.0 0.0 25.1" Properties=species:S:1:pos:R:3:momenta:R:3:c_unc:R:1:forces:R:3:magmoms:R:1 step=55.0 target_atoms="16 0 6 11 1 13 14 15" energy=-39.07191137 stress="-7.766764811351816e-05 0.00011628330958104568 0.00010881531894588985 0.00011628330958104568 4.493185025010197e-05 5.436905573900133e-05 0.00010881531894588985 5.436905573900133e-05 4.8602107276486366e-05" dipole="_JSON [[0.0, 0.0, 0.0]]" magmom=-0.3843364 free_energy=-39.1863457 pbc="T T T"
Ag      12.54456330      12.54452653      12.65032048       0.24588094      -0.55100576       3.69605828       0.01474281       0.84256918      -0.77846506       0.82581357       0.00000000
Ag      14.68438071      12.60333935      10.50553894       1.80149610       2.36439371       0.61857181       0.01838547       0.01295392      -0.07170902      -0.04022497       0.00000000
Ag      14.60075250      10.49139397      12.55637362      -0.58204664      -0.08516115       1.28244659       0.00954442      -0.38197746       0.03824598      -0.12809735       0.00000000
Ag      14.58168090      14.70246308      12.36182063      -0.65602457       0.25934010      -4.32877593       0.00653508       0.27958556      -0.58757126       0.12031710       0.00000000
Ag      14.76227492      12.65712777      14.60248306       0.27309006       1.25582715       0.43553409       0.00868580      -0.16345228      -0.39076734       0.36153621       0.00000000
Ag      16.57721286      12.42903734      12.60783059      -1.24571980      -1.92592215      -2.47936783       0.00790397       0.21065250       0.56322447       0.45390420       0.00000000
Ag      10.61756342      12.48842116      10.49041383       1.61333126      -1.28892140       0.76471158       0.01599519      -0.93592897       0.30149965       0.32220611       0.00000000
Ag      12.56259675      14.57607026      10.48362459       3.63279803       0.56191211      -2.40903347       0.00969756       1.50688398       0.93031098      -1.35229426       0.00000000
Ag      12.44224111      10.70561892      10.42158462      -2.13977310       2.55043941      -1.33908721       0.00891328       0.77110888      -1.27425822       0.22642448       0.00000000
Ag      12.55824793      12.65402866       8.61103381       0.17969195       1.90592149       2.64163021       0.00509641       0.22237198      -0.05041269      -0.80158943       0.00000000
Ag      10.56010344      10.19704550      12.71827519       0.76131231      -4.55647345       1.84201991       0.00868696      -0.69591701       0.61962991      -0.85086065       0.00000000
Ag      12.32921398      10.48266050      14.57750680      -3.22227065      -0.67866622      -2.08427883       0.01758243       0.94171492      -0.05035094       0.35456125       0.00000000
Ag      12.47947786       8.47682980      12.50678528      -0.79285129       0.91174647      -0.62030285       0.00257978       0.55239692      -0.04719124       0.06722187       0.00000000
O       16.84716833      13.03075215      14.67417876       1.66252592       2.41137764       2.05424266       0.04468602      -0.34957885      -0.13253069      -0.98531377       0.00000000
O       11.37018384      14.03680467      11.94269859      -1.81781664      -0.50182345       1.13017472       0.04933837      -2.26392100       0.50902875       1.33916557       0.00000000
Cl      15.07943732       9.82499221       9.96672467       0.77725358      -2.65618280      -2.46968695       0.06030313      -0.31299850       0.25909059       0.37240909       0.00000000
Cl      13.68552608      11.09997883      16.48044102      -0.49087747       0.02319830       1.26514323       0.01086381      -0.23646377       0.16222612      -0.28517901       0.00000000
17
Lattice="25.1 0.0 0.0 0.0 25.1 0.0 0.0 0.0 25.1" Properties=species:S:1:pos:R:3:momenta:R:3:c_unc:R:1:forces:R:3:magmoms:R:1 step=70.0 target_atoms="6 2 0 8 9 3 10 5 4 7 14 13 15" energy=-38.67517764 stress="0.00021665632583421106 0.0001738481802717365 -1.8836874541915673e-08 0.0001738481802717365 0.0001991407600497175 4.649818193127888e-06 -1.8836874541915673e-08 4.649818193127888e-06 0.000400303712882639" dipole="_JSON [[0.0, 0.0, 0.0]]" magmom=0.1217461 free_energy=-38.78069706 pbc="T T T"