20
Lattice="25.1 0.0 0.0 0.0 25.1 0.0 0.0 0.0 25.1" Properties=species:S:1:pos:R:3:momenta:R:3:c_unc:R:1:forces:R:3:magmoms:R:1 step=80.0 target_atoms="1 11 7 3 5 10 8 0 13 9 4 2 6 18 14 12" energy=-52.04923888 stress="0.0004726632445940133 6.7492995838377425e-06 0.0001859634550473151 6.7492995838377425e-06 0.0007299935505337764 -4.435580888985595e-05 0.0001859634550473151 -4.435580888985595e-05 0.0007305233298283814" dipole="_JSON [[0.0, 0.0, 0.0]]" magmom=0.8493474 free_energy=-52.13740909 pbc="T T T"
Ag      10.30539989      12.81780725      15.02326272       2.04277936      -0.76566740       0.50832290       0.02000228      -0.60333526      -0.49144375      -0.41028731       0.00000000
Ag      15.26431754      11.95497099       9.00697377       0.68969755       1.82452739      -1.72298199       0.01446799       0.23985679      -0.40920176      -0.29558883       0.00000000
Ag      12.90836130      12.56033517      14.55977008      -2.78389091       1.46212869      -1.47914570       0.02188588      -0.50095097       0.73289921      -0.05291713       0.00000000
Ag      13.53420122      14.93352145      12.20075697      -1.35766910      -0.46659747       1.60107549       0.01727543       0.32951257      -0.79276235       0.21233439       0.00000000
Ag      15.23228178      11.47129845      14.24049539       2.28917670      -3.45180154       0.29957940       0.02133315       0.51762591      -0.14528597       0.42244972       0.00000000
Ag      15.04769339      12.11306451      11.63892241      -3.51162519      -0.21322689      -0.58159240       0.01787930       0.01044460       1.12655573       0.21709986       0.00000000
Ag      12.63592122      11.75595238       7.96656375      -2.96383051      -1.01426542      -5.50715678       0.02703556      -0.93136573       0.81618399       0.99793201       0.00000000
Ag      13.80815652      14.14380564       9.50939105       2.02377630       1.89185974      -2.14926242       0.01630563      -1.05094177      -0.29797699      -0.42320058       0.00000000
Ag      11.33000101      13.17056544      11.98696813      -3.21178922       4.01117571      -1.82735423       0.01937495      -0.72961835       0.47488774       0.39251162       0.00000000
Ag      13.89339411       9.34375958       8.82208374       4.60793983       1.93188170       2.08809034       0.02076261      -0.65241908       0.76198602       0.38792755       0.00000000
Ag      11.20016314      10.40314066      13.35845005       2.16756226      -0.15032723       2.18302377       0.01861575      -0.94268801       0.18039782       1.33716650       0.00000000
Ag      12.97257204      10.08855497      15.71157004      -2.74165965       3.60948475       0.78572456       0.01571164      -0.19618253       0.13107760       0.29051258       0.00000000
Ag      12.65105038      11.03513652      11.43375387      -1.64091471      -3.32143529       4.93460752       0.05010739       0.69317290      -0.68351233      -2.24965501       0.00000000
O       14.51204903      13.77789044      13.81749119       0.04599847      -1.44700540       2.60638668       0.02005075      -0.11980445      -0.95669010      -0.40826370       0.00000000
O       11.39143067      11.39947990      16.18048453       0.75902802      -0.33570526       1.30467637       0.03218866       0.44905236       0.06937664      -0.92015501       0.00000000
Cl      16.26964342       9.76690531       8.30937966       1.91683200      -1.67906449      -1.75505239       0.00188881      -0.32983454      -0.05840610       0.02702445       0.00000000
Cl      15.24403415       9.32815797      15.66876545       1.65848178      -2.05345323      -1.84477019       0.00184531      -0.07431308       0.31248309      -0.44898372       0.00000000
O       12.25862698      13.91812285       7.87736107       0.98051756      -0.88756086       0.39815927       0.00700138       1.16877842      -0.84783220       0.73478335       0.00000000
Cl       8.95060052      12.14305267      12.31124242       0.00549308       0.80782346      -1.31387832       0.03037336       0.90369018       0.24822109       0.50548511       0.00000000
O       11.66071668      10.43767157       9.55844473      -0.97590362       0.24722903       1.47154812       0.00871088       1.81932003      -0.17095737      -0.31617585       0.00000000
20
Lattice="25.1 0.0 0.0 0.0 25.1 0.0 0.0 0.0 25.1" Properties=species:S:1:pos:R:3:momenta:R:3:c_unc:R:1:forces:R:3:magmoms:R:1 step=170.0 target_atoms="15 17 1 3 10 0 11 7 2 8 9 4 5 18 6 12" energy=-53.49894367 stress="0.00021522082242582182 -5.0566753345549764e-05 0.00012645110243765704 -5.0566753345549764e-05 0.0003083027573784954 -7.854076658362883e-05 0.00012645110243765704 -7.854076658362883e-05 0.0006271640884999738" dipole="_JSON [[0.0, 0.0, 0.0]]" magmom=0.9726353 free_energy=-53.57075259 pbc="T T T"
Ag      10.07964689      12.80236142      14.88407009      -6.38010278       1.03428933      -3.13109926       0.01359501      -0.11775110       0.09254626      -0.17297119       0.00000000
Ag      15.44419908      11.96582021       8.81164074       3.24871911       0.77697346      -2.00141122       0.01264146      -0.17963730       0.40425723       0.20491553       0.00000000
Ag      12.79534352      12.77057882      14.35014610       2.72842377       3.18324920      -4.17859775       0.01818289       0.23875302      -0.36049728       0.15149268       0.00000000
Ag      13.52987279      14.57767380      12.45294320       1.01864994      -5.76445665       3.62538108       0.01265435      -0.13872548       0.94043855      -0.26707956       0.00000000
Ag      15.40773123      11.18755494      14.32366274       0.81131260      -0.77155177      -0.00854932       0.01942888      -0.32380065       0.91722213      -0.44552669       0.00000000
Ag      14.79280733      12.43303721      11.64426984      -2.36919845       4.16653504      -5.01490855       0.02013642       0.39186600      -0.83795472      -1.91209148       0.00000000
Ag      12.27825712      11.63657272       7.78809428      -4.28764297       1.17585590       0.24554773       0.05050438       0.34508878       0.19657643       1.22499359       0.00000000
Ag      13.89709279      14.20215090       9.56456278      -0.49830687      -2.14207294       1.61906440       0.01476596      -0.72316703      -0.64245755      -0.63566999       0.00000000
Ag      11.14990462      13.53114441      11.99860321       0.97181006       3.87634626       1.50683927       0.01913837       0.38491819      -0.14457807       0.05736521       0.00000000
Ag      14.30540822       9.57333554       9.01457834       6.31651462       0.48038856       2.00827534       0.01930361      -3.06408944      -0.05295999       0.78614249       0.00000000
Ag      11.07416876      10.51558695      13.83500138      -2.44262397       2.45891119       6.46750517       0.01343307       0.12094594      -0.09614996      -0.34252164       0.00000000
Ag      13.14380153      10.18469727      15.83924844       5.56163413      -0.52975802       1.53454253       0.01365168       0.41041366      -0.28063499      -0.37091474       0.00000000
Ag      12.63603560      10.72605646      11.30713390      -1.12015507      -2.91137047      -4.20767038       0.05084636      -0.27526052       0.25221589      -0.18028974       0.00000000
O       14.96117488      13.16743283      13.52145924       0.37844973       1.22834758       2.70602678       0.00474611       0.28921971      -0.29775688       1.63922387       0.00000000
O       11.50209062      11.36907608      15.92180215      -0.39697907      -0.07991898      -1.85586304       0.00604558      -0.52526828       0.53175096      -0.25802896       0.00000000
Cl      16.31100990       9.60426965       8.09708119       0.62942796       0.43563316      -0.57928907       0.01114773       1.46296237       0.21703826      -0.50401958       0.00000000
Cl      15.12906541       9.02534707      15.13877063      -1.64224328      -3.17611030      -0.47246035       0.00311405       0.05562518      -0.38742452       0.36779115       0.00000000
O       12.69171365      13.70442355       7.69596313       1.39821762      -0.77589172       0.51495051       0.01123407       0.55359874      -0.42970994       0.79507665       0.00000000
Cl       9.17091744      12.24439803      12.34882933      -1.68696746      -0.76760144       0.99851838       0.02387259      -0.34737841      -0.22699554       0.38731605       0.00000000
O       12.02320851       9.97751471       9.46259122      -2.23893963      -1.89779739       0.22319773       0.00321747       1.44168663       0.20507372      -0.52520366       0.00000000
20
Lattice="25.1 0.0 0.0 0.0 25.1 0.0 0.0 0.0 25.1" Properties=species:S:1:pos:R:3:momenta:R:3:c_unc:R:1:forces:R:3:magmoms:R:1 step=555.0 target_atoms="0 10 11 3 7 2 1 8 4 5 9 18 6 12" energy=-55.1053185 stress="0.00033502091032384636 0.00012666916204198803 5.859058781742024e-05 0.00012666916204198803 6.297754485371155e-05 6.0307146381748035e-05 5.859058781742024e-05 6.0307146381748035e-05 0.0001823205920044842" dipole="_JSON [[0.0, 0.0, 0.0]]" magmom=0.00029 free_energy=-55.13038424 pbc="T T T"
Ag      10.57098876      13.05915627      14.45904973       2.38998366       1.24700791      -0.38664741       0.01164647      -1.12768261       0.19335381       0.53974064       0.00000000
Ag      15.26106694      12.55650848       8.38992146      -5.03706602       2.29539578      -1.33218979       0.01439488      -0.65986123      -0.00746968      -0.08737411       0.00000000
Ag      13.13447722      12.93409195      14.27083373      -1.25628259      -4.03984332       0.72096670       0.01407641      -0.28616617      -0.24216753       0.54227800       0.00000000
Ag      14.06835783      14.53239185      12.34001930       2.05391119      -1.25521273      -2.47002693       0.01245885      -0.63918584       1.15024352      -0.70282587       0.00000000
Ag      15.15727803      10.94069237      14.07101191       1.85252562      -2.03286110       2.62321531       0.01738102       0.35884818       0.00060566      -0.15813653       0.00000000
Ag      14.48947104      12.11872520      11.27543848      -2.36798190       4.97847655       2.25339219       0.02067695      -0.37210109      -0.72320606      -1.27682224       0.00000000
Ag      12.64644187      11.52985588       8.86003632       4.57748198       0.53525415      -2.65259717       0.03432541       0.21450524      -0.17178614      -0.03696907       0.00000000
Ag      13.20152079      14.30429104       9.57472461       2.67474796       1.41643252      -5.01002966       0.01322882      -0.05655956       0.65146210       2.23569659       0.00000000
Ag      11.36046401      13.60188366      12.05873023       0.86197786       2.99705492       1.62585491       0.01583860       0.42409222       0.08953117      -1.10187166       0.00000000
Ag      14.78181321       9.58895617       9.13519348      -0.87346163      -1.39453498       0.17917727       0.02558800      -0.04258020       0.70111400       0.19595437       0.00000000
Ag      10.39271423      10.30465794      14.01104357      -3.26546136      -0.15533978       0.93490352       0.01181238      -0.00060983       0.18232444      -0.28801659       0.00000000
Ag      12.84681751      10.27646574      15.45771123      -1.01519026       1.05765836      -2.19630481       0.01245766      -0.94743339       0.44221881       0.28676158       0.00000000
Ag      12.43923121       9.97162753      11.59114302       0.73417072      -6.89261350       1.51907331       0.05154671       0.14740832       0.15403135      -0.39199390       0.00000000
O       14.99995544      12.76437938      13.23695318      -1.32680609       2.48525311       0.70334095       0.00677336       1.16381504       0.25795810      -0.06141807       0.00000000
O       11.16575745      11.47958428      15.74965547       0.80778400      -1.15877373       0.06643452       0.00962984       0.21315864      -0.52176506      -0.10764403       0.00000000
Cl      17.00031265      10.91091216       8.74070568       0.15675763      -0.05027557       0.41661228       0.00369615      -0.52103108      -0.25657656       0.08607813       0.00000000
Cl      14.88450525       9.21339177      15.53848039      -1.12472491      -0.25135672      -0.57241647       0.00872054       0.58014119      -1.14173204       0.36157609       0.00000000
O       13.09130484      13.39648174       7.87084091      -2.31547661       0.36027841       1.02162634       0.00302696       0.57880601      -1.30620603      -0.90283417       0.00000000
Cl       8.96897604      12.42334055      12.40555746       0.29201418      -0.30421640       0.06021874       0.03055756       0.65278402       0.06864569       0.19804227       0.00000000
O       12.62122575       9.48065647       9.45830508       2.18109657       0.16221612       2.49539619       0.00446943       0.31965215       0.47942045       0.66977857       0.00000000
20
Lattice="25.1 0.0 0.0 0.0 25.1 0.0 0.0 0.0 25.1" Properties=species:S:1:pos:R:3:momenta:R:3:c_unc:R:1:forces:R:3:magmoms:R:1 step=855.0 target_atoms="14 7 2 16 11 18 1 0 5 4 12 10 8 6 9 3 19 13" energy=-54.39828725 stress="0.0007680621312434021 7.217534477706941e-05 5.395539348017429e-05 7.217534477706941e-05 0.0006671077933132702 4.412946680291492e-06 5.395539348017429e-05 4.412946680291492e-06 2.261937886841995e-05" dipole="_JSON [[0.0, 0.0, 0.0]]" magmom=0.0001554 free_energy=-54.42851881 pbc="T T T"
Ag      10.39784559      13.56011096      14.34232917      -2.09587512       6.26203718      -1.08242266       0.01507006       0.08771582       0.06605140       0.49793891       0.00000000
Ag      14.67259133      12.22097446       8.05175463      -5.35473839      -0.57868392      -2.72734584       0.01436687       0.49585635      -0.12426559      -0.38500557       0.00000000
Ag      13.07366836      12.52477983      14.36136033      -0.82916080      -0.49758366       4.81382909       0.01265167       0.22158559       0.46336228       0.03959308       0.00000000
Ag      14.47906544      14.82883838      12.29698152      -2.14584696      -6.30093074      -1.75103056       0.02324916      -0.54301354      -1.01834410       0.14039927       0.00000000
Ag      15.00785961      10.83163002      13.79354520       1.49821232      -3.99311242      -5.00631866       0.01724974       1.26660495      -0.01234827       0.30346077       0.00000000
Ag      14.01825537      12.19748607      11.50337524       1.30959583       4.22127324       2.69972926       0.01555667      -0.16716165       0.53106034       0.14572730       0.00000000
Ag      12.33325252      11.10034483       9.36905798       0.99819026       0.85607778       3.39498169       0.02243023       0.46731927       0.86746874      -0.69729472       0.00000000
Ag      12.87366144      14.07389117       9.68245366      -0.63165415      -1.16728886       1.00364225       0.01232218       0.50374233      -0.43634586      -0.78939705       0.00000000
Ag      11.53334517      13.79404852      11.90735406      -3.17137892       2.99489030      -1.54495763       0.02049835       0.40171047      -0.12895799       0.09604763       0.00000000
Ag      15.59816395      10.53034497       9.98220857       5.89588541      -2.42197996       7.67670487       0.02279365      -0.52855289      -0.65375143       0.04464069       0.00000000
Ag      10.51394387      11.06810061      13.40826654       1.90637319       2.51751429      -2.18602496       0.01934369       0.45838687      -0.47315511       0.22026448       0.00000000
Ag      12.58508093       9.49400219      15.04715076      -0.94526242      -0.15754998       0.58893809       0.01328752       0.37055514       0.69262062      -0.09590767       0.00000000
Ag      12.98587082       9.71933983      12.33684807       6.33200957      -2.21650688      -1.92105530       0.01773269      -0.83519814      -0.11733742       2.94998143       0.00000000
O       15.49615485      12.93078095      13.85067063       0.35706828       0.08826163       2.08747488       0.05109468      -1.74176953      -0.47690203      -0.61972990       0.00000000
O       11.37241267      11.44787078      15.35957056      -0.82174860       0.07362409      -0.83792647       0.01195834       0.48710183      -0.57063966      -0.38905709       0.00000000
Cl      16.96057922      11.14087639       8.06372392       1.01340788       2.46644324      -3.12518343       0.00138652      -0.53867808       0.33388240       0.25481108       0.00000000
Cl      14.97214897       8.34681440      14.33797190      -0.25235801      -0.32984432      -1.71775011       0.01328434      -0.87562704       0.74289613       0.12944118       0.00000000
O       12.73200600      12.80291331       7.79144768       0.03572389      -0.92165228       0.31751051       0.00240471      -0.27725918       0.10326780       1.42881172       0.00000000
Cl       9.26735685      12.49568525      11.95330386      -1.63049581       0.21959813       0.95694429       0.01420323      -0.33643565       0.30388017      -0.34596289       0.00000000
O       13.38495569       9.67561005      10.51297840      -1.46794748      -1.11458685      -1.63973930       0.02403493       1.08311709      -0.09244243      -2.92876266       0.00000000
20
Lattice="25.1 0.0 0.0 0.0 25.1 0.0 0.0 0.0 25.1" Properties=species:S:1:pos:R:3:momenta:R:3:c_unc:R:1:forces:R:3:magmoms:R:1 step=1190.0 target_atoms="9 3 8 5 11 10 2 7 12 0 13 4 6 15 1" energy=-54.65327223 stress="0.0008056807365941063 -0.00011774474645985297 1.3710329881752822e-05 -0.00011774474645985297 0.0007779302879714073 3.572350217632136e-05 1.3710329881752822e-05 3.572350217632136e-05 0.0004540141770616954" dipole="_JSON [[0.0, 0.0, 0.0]]" magmom=1.0177064 free_energy=-54.72065519 pbc="T T T"
Ag      10.28215269      13.66563937      14.67590045      -1.23239238      -3.09915103      -0.61548721       0.01975959      -0.02163184      -0.20326724      -0.21511599       0.00000000
Ag      14.47916815      12.63377427       7.43173135       3.35328162       0.49534182      -3.08925277       0.05247535      -0.82837642      -0.11923429       0.56282611       0.00000000
Ag      13.08713271      12.99327016      14.62094319       5.52789662       0.85966862       1.62770914       0.01729662       0.84767404      -0.50264276       0.00757595       0.00000000
Ag      13.95372579      14.77868840      12.70021988       0.76189416      -0.57058106      -2.36156232       0.01057253       0.29865055      -0.85347886      -0.08492112       0.00000000
Ag      16.11204054      11.60130329      13.22583417       0.75433043       5.62248971      -3.89193288       0.02335863      -0.49060050       0.72490707       0.18637227       0.00000000
Ag      13.59543259      11.60160365      12.09994396      -0.35861250      -6.69187239      -0.41086259       0.01529117      -0.31129479       0.06273138       0.10981424       0.00000000
Ag      13.00268025      10.67631762       9.43471320       6.76197419      -1.02586893       2.34075017       0.02459156       0.64098519      -1.01304665       0.57271730       0.00000000
Ag      13.33114937      13.63469625      10.18733972       1.36454054      -3.86814635       1.52367737       0.01825168       0.19484713       0.23919083       0.48852186       0.00000000
Ag      11.16040321      13.90412819      11.69651893      -1.77542922       1.71266483       0.69398583       0.01332891       0.15051697       0.15326850       0.42116184       0.00000000
Ag      15.51424591       9.89489488      10.89367166      -3.04871386       4.32181337       1.07750791       0.01047563      -0.08810723       0.17613052       0.10765286       0.00000000
Ag      10.66798861      11.36290419      12.68354175      -4.00816018      -1.66149249      -2.41250097       0.01700438       0.33551016       0.11662900       0.42554262       0.00000000
Ag      12.50794552      10.09410115      14.53914681      -2.43589441       1.58104006       1.81969860       0.01582940      -0.52654281       0.38272106       0.16644328       0.00000000
Ag      13.34414637       8.49994715      12.16771509      -1.51375175      -3.28624112      -0.49183828       0.01876230      -0.28403053      -0.23935901       1.47870189       0.00000000
O       15.45079037      13.49791035      14.20025052       0.71215312      -0.95449098       0.46599434       0.02050582      -1.40506687      -0.47086925      -0.78140874       0.00000000
O       11.31215535      11.80084843      15.16469700       0.63329371      -1.44929570       2.15826283       0.00637289       0.71916753      -0.08117407      -0.53026241       0.00000000
Cl      16.24737538      12.60452902       6.02279713      -1.27458550       2.36786742      -2.97129944       0.03590380       0.12043222       0.03573217      -0.02236063       0.00000000
Cl      13.08496337       7.77782787      14.48791382      -2.94578002       1.60295026       1.30956550       0.00178445       0.01133599       0.32414626      -0.41695702       0.00000000
O       12.65303179      12.52504451       8.60990944       0.83057167       1.30599535       1.12287088       0.00327160       0.42632912      -0.17187295      -0.83163696       0.00000000
Cl       8.79508610      13.63495316      12.66725998      -1.23470953       1.99477844       0.91187712       0.00652187       0.28622963       0.01340984      -0.19319602       0.00000000
O       13.86753806       8.58965207      10.29686598      -0.87190671       0.74253018       1.19283675       0.00410435      -0.07602755       1.42607845      -1.45147133       0.00000000
20
Lattice="25.1 0.0 0.0 0.0 25.1 0.0 0.0 0.0 25.1" Properties=species:S:1:pos:R:3:momenta:R:3:c_unc:R:1:forces:R:3:magmoms:R:1 step=1250.0 target_atoms="14 5 13 0 10 3 12 7 4 2 6 1" energy=-55.15030334 stress="0.00021829188209310314 0.00013491134946911842 -0.0001639915204035413 0.00013491134946911842 0.00026721767403285783 0.00017770483372665628 -0.0001639915204035413 0.00017770483372665628 8.220862687050888e-05" dipole="_JSON [[0.0, 0.0, 0.0]]" magmom=0.9884513 free_energy=-55.23816646 pbc="T T T"
Ag      10.30308197      13.39090639      14.61895888       0.86937206      -6.35263343      -1.94190011       0.01293883      -0.75362517       0.01184253      -1.00449717       0.00000000
Ag      14.62479478      12.65407807       7.27568323       3.23501835       0.22660496      -3.91265080       0.05152774      -0.70592216      -0.09257750       0.24792212       0.00000000
Ag      13.33116579      12.91005954      14.73727327       0.95838485      -4.30535611       3.41395314       0.02575336       1.13588701       0.06933911      -0.64747867       0.00000000
Ag      14.02052538      14.61922568      12.55643236       0.33080621      -3.27465163      -3.86629785       0.01379869      -1.29790580       1.36105742      -1.11382554       0.00000000
Ag      16.12166468      11.92823948      12.99827888       0.16489002       5.40276278      -4.65879251       0.01581365      -0.03913558      -0.32251518      -0.29445129       0.00000000
Ag      13.46762631      11.30935860      12.16994482      -4.85004022      -3.40054517       3.46795796       0.01156055      -0.89556044       0.50507535       0.69142540       0.00000000
Ag      13.31163179      10.71344079       9.49095219       3.37902769       1.54274034      -1.13898605       0.02665457       0.06188881      -2.75770294       0.66125502       0.00000000
Ag      13.42265806      13.49079914      10.34082059       1.12544582      -2.68720044       1.36842644       0.01552071      -0.56643817      -0.50258901      -0.88204827       0.00000000
Ag      11.08709685      14.00070032      11.81333931      -0.58152656       1.58950077       3.07255944       0.00906339       0.50492787      -0.09220750       0.06422753       0.00000000
Ag      15.45795616      10.11588223      10.97884709       1.79665066       2.42328819       1.76194385       0.00968521       0.65611179      -0.73802403      -0.02849507       0.00000000
Ag      10.52659984      11.31758969      12.59130775      -1.09698403       0.06756651      -1.54198388       0.01335132       0.47920627       0.24706740       0.09418342       0.00000000
Ag      12.31923477      10.22059048      14.65508924      -4.57071204       3.41177622       2.54822660       0.00988500      -0.47668003       0.62361977       0.19074216       0.00000000
Ag      13.21656178       8.36972231      12.25173485      -2.45359138      -0.56817339       0.91589734       0.01424341      -0.16012965       0.21062920       0.62269475       0.00000000
O       15.06969736      13.54314249      13.78172272       2.02141881       1.94851875      -1.29845663       0.01157812       1.02297399      -0.67632282       1.84201564       0.00000000
O       11.66702945      12.20166789      15.48457442       1.02843003       2.17128160       0.91209039       0.01075802      -0.01691957      -1.29258840       0.84571639       0.00000000
Cl      16.09231641      12.99172605       5.54878282      -1.04267109       2.24222717      -1.92171672       0.00529143      -0.02936304      -0.02278500       0.22672443       0.00000000
Cl      12.68876789       7.87694763      14.53575382      -1.85812350      -0.83746600      -0.29674799       0.00076657       0.03304505       0.02142997      -0.27434198       0.00000000
O       12.90273831      12.32069110       8.53690116      -0.26574134       0.33600818       0.47073528       0.00290394       0.50217491       1.81818811      -0.71528823       0.00000000
Cl       8.75428472      13.93986221      12.76586782       0.95933182       1.62293905       0.64632843       0.00879029       0.27507127       0.04482295       0.21617801       0.00000000
O       13.79364499       8.62199639      10.37554801       0.85061383      -1.55918833       1.99941366       0.00930019       0.27039265       1.58424057      -0.74265867       0.00000000
20
Lattice="25.1 0.0 0.0 0.0 25.1 0.0 0.0 0.0 25.1" Properties=species:S:1:pos:R:3:momenta:R:3:c_unc:R:1:forces:R:3:magmoms:R:1 step=1300.0 target_atoms="3 8 18 9 0 11 10 4 2 6 12 7 1" energy=-55.19087363 stress="0.0005140448495552034 -0.0001003724108267802 -0.00016251457337455614 -0.0001003724108267802 0.00037665316805002275 -0.0002715315305142668 -0.00016251457337455614 -0.0002715315305142668 0.00031422209852782795" dipole="_JSON [[0.0, 0.0, 0.0]]" magmom=1.2756344 free_energy=-55.28396574 pbc="T T T"
Ag      10.34153869      13.07931485      14.50578198       2.73251357      -8.16459176      -0.98522873       0.01150285       0.51826852      -0.23545698       1.10583111       0.00000000
Ag      14.68422377      12.65834132       7.13193241       0.95023568       0.49697078      -3.79546313       0.05454028       0.36188990       0.39852843      -0.54678158       0.00000000
Ag      13.55606820      12.77555150      14.79085497       6.56928524      -1.99029767       0.39523013       0.01481242       0.09862621       0.43266380       0.54522579       0.00000000
Ag      13.98458916      14.52963362      12.40710041       0.02590104      -1.78974908      -0.05129889       0.01005813       0.42522570       0.03598895       1.52159101       0.00000000
Ag      16.08847971      12.16710165      12.77517031      -2.44013482       6.04999571      -4.18354515       0.01306720      -0.53249342       0.61866041       0.50046880       0.00000000
Ag      13.20964740      11.22225583      12.37357596      -5.22775658      -0.32315607       4.81255553       0.00956829       0.59329530       0.63893420      -0.33254425       0.00000000
Ag      13.43828046      10.65079816       9.45113235       1.68631445      -0.63211922      -2.30710984       0.01801732      -0.52837409       1.70272493      -0.96307563       0.00000000
Ag      13.41256045      13.33742139      10.29985765      -1.47958848      -3.15767001      -1.85537335       0.02006271      -0.53381177      -0.16322531       0.21403585       0.00000000
Ag      11.13949307      14.06075783      11.94142153       3.07666334       1.08179685       2.32326313       0.01053983       0.89736465      -0.10015576      -0.31993879       0.00000000
Ag      15.61042217      10.16954625      11.07056726       5.73159972       1.45819148       3.07788707       0.01105755       0.93220423       0.35438099       0.54415370       0.00000000
Ag      10.51543814      11.32897266      12.50074301       0.29140594       0.07174969      -2.59892432       0.01223106       0.05950237      -0.16895055      -0.23811178       0.00000000
Ag      12.07624774      10.39907560      14.80992130      -5.78587886       3.65896638       4.42246729       0.01164771      -0.28786483      -0.96803571       0.30511069       0.00000000
Ag      13.10009600       8.40012928      12.33873036      -1.63762116       2.56134355       0.49173961       0.01968519       0.49459675       0.57156818      -0.88086734       0.00000000
O       15.36210867      13.74373741      14.13855668      -1.82585867      -0.68901616       0.67088179       0.00437936      -0.92180503      -0.58078570      -0.87141354       0.00000000
O       11.71911133      12.10868241      15.94867759       0.30103562      -0.84007854      -1.30935404       0.00325630       0.17439286       0.50567212      -1.77986316       0.00000000
Cl      15.99469036      13.26618918       5.35862443      -0.32061473       1.43350618      -0.80324339       0.00462289      -0.00614568      -0.19769368       0.16480132       0.00000000
Cl      12.38796504       7.82436463      14.49353280      -2.67348171       0.44188157       0.03273960       0.00680553      -0.12554201       0.70173020      -0.08505969       0.00000000
O       13.22195582      12.56495176       8.46524436       0.71098407      -1.94564804       0.27851162       0.00920155      -0.58605700      -1.32772958      -0.07080155       0.00000000
Cl       8.89631815      14.16484009      12.90324235       0.52107221       1.74387224       1.12203275       0.01062942      -0.04999583      -0.09514778       0.14640569       0.00000000