43
Lattice="29.7 0.0 0.0 0.0 29.7 0.0 0.0 0.0 29.7" Properties=species:S:1:pos:R:3:momenta:R:3:c_unc:R:1:forces:R:3:magmoms:R:1 step=15.0 target_atoms="39 38" energy=-126.63618352 stress="0.00022301964425219508 -0.0001647520794980758 -8.01888807588822e-05 -0.0001647520794980758 -0.0001256280034216812 0.00012184240330665048 -8.01888807588822e-05 0.00012184240330665048 -6.363774048150185e-05" dipole="_JSON [[0.0, 0.0, 0.0]]" magmom=6.2520458 free_energy=-126.77312043 pbc="T T T"
Ag      12.29247107      16.07980545      11.82754196       1.52204005       0.24415240      -2.16977173       0.00695872      -0.80275529      -0.35145422      -0.09889188       0.00000000
Ag      15.64521758      13.84128419      16.37410510      -4.12954929      -5.28826183       0.13808905       0.00485331       0.41156986       0.70003252      -0.20345026       0.00000000
Ag      13.97732168      10.65881950      12.27739552       2.73653828       0.92903139       0.05001285       0.00196283      -0.72052668      -0.78366292      -0.37682910       0.00000000
Ag      15.32014965      16.40097651      15.45036393       0.50596223      -1.02199404      -1.04223108       0.00185072      -0.63261403       0.29329773       0.04190477       0.00000000
Ag      12.82541021      14.29408866      15.55293181      -1.18954458       5.51431987      -2.54520661       0.00522132       1.84464070      -0.42592880      -0.87601214       0.00000000
Ag      11.60537344      13.26956962      11.24545253       0.05399680       6.20121496      -4.25028022       0.00532829       0.81642825       0.36343903      -0.11706598       0.00000000
Ag      10.63309996      14.31948666      13.58273390       1.49953861      -2.02785142      -4.08949681       0.00337496       0.47864414       0.49290874      -0.17187269       0.00000000
Ag      10.41864339      11.18892937      12.56965282      -1.08865480      -4.27004772      -0.89875042       0.00172706       0.10680196      -1.02557672      -0.14390072       0.00000000
Ag       9.06196268      12.83356731      15.19266742       2.31118868      -1.08915589      -2.12569800       0.00474004      -0.12023947      -0.74382304       0.50324765       0.00000000
Ag      14.58501488      15.47240089      13.01967712      -1.40790590      -3.77916577       1.17667721       0.00207933      -1.71654759       1.48747757       0.65461442       0.00000000
Ag      13.36033899      15.40235949       9.43594571      -5.59281579       4.64619512       1.70300846       0.00589887      -0.85456746      -0.62347196      -0.41823987       0.00000000
Ag      12.43735000      11.86774289      14.15648718      -2.46976634      -1.72986316       4.31282562       0.00166402      -0.34119289       0.12830465       1.17370240       0.00000000
Ag      14.35084739      11.63899948      16.19658900       1.33639386       3.98526857       2.84395484       0.00279720      -1.11837485      -1.01200242      -0.28003593       0.00000000
Ag      14.93696457      13.01862246      13.65819984       1.31291390       1.53968560      -2.68566924       0.00643150       0.33179429      -0.80494957       1.55993408       0.00000000
Ag      17.41102295      12.01184488      12.45371451       1.33876861       0.52196874       6.58236893       0.00182446      -0.24858924      -0.28584347      -0.04626435       0.00000000
Ag      14.77373629      13.68453174      11.05396307       1.41520506       6.21206273       1.60710473       0.00576448      -0.74004363       0.58391142      -1.36027466       0.00000000
Ag      11.88937346      16.50805324      14.50965496      -3.09958736       0.65703989      -3.89324508       0.00196668      -0.00877418       0.90768366       0.09338977       0.00000000
Ag      10.87950670      14.07190497      17.10762242       2.02524485       2.17694212      -1.57773672       0.00272843      -2.51867037      -1.30877367      -0.19507065       0.00000000
Ag      12.70732613      16.38365893      17.59251564       1.79809546       0.77642328      -0.71164155       0.00727586      -0.04265420      -0.31044616      -0.64681788       0.00000000
Ag      13.41286991      13.13710455      18.28152507      -1.33079662      -0.73712034       1.77844522       0.00544748      -0.53490686       0.87792886       0.41149053       0.00000000
Ag      19.53625920      13.84688374      12.46122628      -1.81255982      -4.22848721      -1.57121516       0.00155353       0.23195972       1.04063800      -0.04260820       0.00000000
Ag      17.02492329      14.95527212      12.99753443      -3.55651165      -1.75057644       3.80696399       0.00275803       1.02980204      -0.19007293       0.17100039       0.00000000
Ag      12.63531238      18.70925177      11.43756496      -0.46910579       0.61768511      -1.17267238       0.00293570       0.43181219       0.09108183      -0.21068230       0.00000000
Ag      13.25642785      18.97708590      14.85182242       5.20160007      -3.47137248       1.06183373       0.00325730      -0.72873781       0.13199496      -0.39945193       0.00000000
Ag      15.57553830      16.19324757      10.55624814      -2.03678877      -2.18844410      -0.76326415       0.00152858       1.04865827       0.67263635      -0.18532864       0.00000000
O       13.58898193      17.71192802      16.34743086      -1.24453045      -0.12949951       0.22712928       0.00220904       1.14404417      -0.59953476       0.43844211       0.00000000
Cl      15.78570174      12.46892271      18.54827218      -0.74209051       1.84828760       0.00431173       0.00498892      -0.10536405      -0.05906708      -0.23557333       0.00000000
Cl      11.97159434      20.14930132      13.31600959      -1.66031236      -0.19577760       2.74762892       0.00143802       0.12341451       0.07397076      -0.74360298       0.00000000
O       13.45147572      17.46293813       9.85938960       0.53484661      -0.43227395      -0.56441697       0.00634483      -0.02199765       0.36850657       0.95553841       0.00000000
O       11.83746576      14.88228192      18.61872323       0.30332817      -1.21461687       0.25605505       0.00368965       1.26149563       0.03427336       1.18707594       0.00000000
Cl       8.76764821      12.29806928      17.37697281       1.33297076      -3.26224448       4.73351956       0.00937493       0.10975295       0.46955184       0.38767728       0.00000000
O        9.27989285      12.71661470      13.18698930      -1.81977722      -0.96784183      -0.12925233       0.00534988      -0.44105489       0.09817249      -0.75019487       0.00000000
Cl      11.95969378       9.27244382      12.25057816       0.47002882       1.32188820      -0.93975526       0.00439486      -0.06081288       0.60311846       0.04161155       0.00000000
Cl      19.13910594      16.17871328      12.69088213      -0.36708649      -0.19144940      -2.09928651       0.00129087       0.23447129       0.18223315      -0.09925302       0.00000000
O        2.79822253      21.28308464      14.38730011       0.09224804       0.49470308      -0.30342360       0.00159277       1.29498499       0.33089539      -0.68029331       0.00000000
O        3.88274202      21.55937965      13.81495006       1.06154061       1.48521966      -1.62847097       0.00159277      -1.30218959      -0.33113054       0.68967840       0.00000000
O       19.30235650      12.00920427      13.10187806       0.03109103      -1.63813426       0.43004280       0.00289736      -0.13304663      -0.80759585      -0.00698054       0.00000000
O       15.48122035      11.89654254      11.66837969      -0.18959635      -2.07847153      -0.83107349       0.00527058       0.92153194      -1.07819257       0.32584776       0.00000000
O       17.98333157      14.79869369       9.65091842      -1.26291664       1.08027626       0.64586174       0.05260467      -0.46783964       0.23444656       0.33533354       0.00000000
O       11.75343944      10.95904020      16.41605575       1.70197163       1.51004415      -0.63503938       0.01932005       1.09945173       0.62789833      -0.75601848       0.00000000
O       15.88997466      18.81679776      13.83079013       0.60220272       0.07225510      -0.44311482       0.00339645       1.11381101       0.18554881      -0.52799415       0.00000000
O       16.97245223      19.12875805      13.25053026       0.79197543       1.57133974      -1.54290026       0.00288615      -0.97978799      -0.21093883       0.52386736       0.00000000
Cl       9.53565388      16.54444390      12.81810759      -0.72648502      -0.51666772       3.74179885       0.00329752       0.60621825      -0.02748554       0.07835149       0.00000000
43
Lattice="29.7 0.0 0.0 0.0 29.7 0.0 0.0 0.0 29.7" Properties=species:S:1:pos:R:3:momenta:R:3:c_unc:R:1:forces:R:3:magmoms:R:1 step=75.0 target_atoms="40 24 30 38 39" energy=-130.15907142 stress="0.00016167906623843804 1.1028047576413619e-05 2.5928714388091014e-05 1.1028047576413619e-05 -1.5928949198657537e-05 -7.617221997601129e-05 2.5928714388091014e-05 -7.617221997601129e-05 0.000511622963010596" dipole="_JSON [[0.0, 0.0, 0.0]]" magmom=5.9862993 free_energy=-130.31319744 pbc="T T T"
Ag      12.23065578      16.07936981      11.73789828      -3.85333361       0.64640585      -0.37832996       0.00771897      -0.86048375       0.55429704       0.39001158       0.00000000
Ag      15.56661703      13.83443620      16.32932978       1.25887630       5.05623576      -1.93884103       0.00322724       0.71617079       0.88747386      -0.08323601       0.00000000
Ag      14.04078445      10.65650824      12.22888704       1.99302819       1.03039224      -1.97395477       0.00189474       0.16599265       0.39622480      -0.35130850       0.00000000
Ag      15.29181688      16.35974387      15.41629558       0.04383649      -1.50299386      -0.67683499       0.00593614       0.72015757      -0.54218687      -0.25165838       0.00000000
Ag      12.99545803      14.50350119      15.32792576       5.27645661       2.13849904      -4.49049990       0.00458641      -0.12343942      -0.71276565       0.36356274       0.00000000
Ag      11.72796051      13.59472408      10.98616683       4.00270126       4.57857838      -5.60792582       0.00185865       0.38661985      -0.79653403      -0.48912135       0.00000000
Ag      10.69247465      14.16856613      13.35041784       0.12083014      -4.19573960      -3.46562007       0.00482378      -0.23667361      -0.37043908       0.41144234       0.00000000
Ag      10.31800671      11.00100583      12.53132126      -2.17116655      -1.55836267      -0.45561289       0.00344747       0.50907229       0.20009244       0.00523459       0.00000000
Ag       9.15701235      12.64068638      15.22779048       1.28007008      -5.51623295       2.19479576       0.00555262       0.04096599      -0.68762272       0.45405238       0.00000000
Ag      14.28098275      15.51456803      13.18025790      -7.20727359       3.51883758       3.47312940       0.00588058       0.43224299       0.06174206      -0.41888789       0.00000000
Ag      12.97894153      15.52851410       9.39708847      -6.76188047       0.99479417      -3.32477371       0.00559513       0.40475776      -0.28352991      -0.84765487       0.00000000
Ag      12.24521730      11.83579360      14.31399641      -4.09146488       0.99870974      -1.30409183       0.00550548       0.04083971       0.22586167       0.83862591       0.00000000
Ag      14.40367432      11.57141665      16.32243588       4.88988712      -6.16163577       2.04104937       0.00560879      -1.37032767      -0.86360329      -0.02549251       0.00000000
Ag      15.03835813      12.92641756      13.70766588       1.59498646      -4.10375715       3.44159167       0.00553332      -0.26939971      -0.19023427       0.50492731       0.00000000
Ag      17.41019456      11.93187633      12.77557705      -0.66357203      -3.88704779       5.02211816       0.00240157      -0.17845859      -0.57239383      -0.64206433       0.00000000
Ag      14.80556109      13.81153482      10.99285032       0.13501743      -2.17984920      -2.49977531       0.00349207      -0.06399217      -0.53037635      -0.21811371       0.00000000
Ag      11.71981907      16.69835824      14.32535917      -2.18114940       5.60241511      -2.11350703       0.00132144       0.88541298       0.36145262       0.76949745       0.00000000
Ag      10.75742790      14.04397864      17.07684607      -3.45914411      -2.23133588       1.25368868       0.00784222       0.26931084      -0.28198567       0.51228849       0.00000000
Ag      12.76361945      16.25565225      17.55027242       2.29081668      -3.01638140      -2.22778904       0.00632475       1.42314880       1.14266197      -1.22265786       0.00000000
Ag      13.30381932      13.20222069      18.41960542      -1.08963739       1.96818685       2.60628032       0.00822708      -0.00191418       0.12834283      -0.12441051       0.00000000
Ag      19.45950234      13.68058499      12.41845980      -0.45661423      -1.28186463       0.05642952       0.00551817       0.31018307       1.57396083      -0.05947530       0.00000000
Ag      17.01131341      14.86447193      13.19904360       1.69633834      -1.12682088       3.36763307       0.00234307      -0.09443633       0.18066028      -0.06877665       0.00000000
Ag      12.64185762      18.79495069      11.44356352       0.58318523       2.92631712       2.56505315       0.00204772       0.63201650      -0.20580992       0.27454119       0.00000000
Ag      13.41910921      18.81097806      14.85235060       1.32903014      -3.42301944       0.31379558       0.00262865      -0.06406734      -0.42316870       0.59244898       0.00000000
Ag      15.55540944      16.27846188      10.46121878      -7.35920631      10.43001376      -1.99408775       0.01038998      -1.12926605       1.40173856       0.28931818       0.00000000
O       14.25045942      17.68128179      16.48687134       1.41275839       0.78265881       0.96669394       0.00400539      -1.50286372       0.70707754       0.42472619       0.00000000
Cl      15.72342690      12.62758013      18.52738286       0.30163064      -0.15066965       0.05972349       0.00416970       0.20014694      -0.25050027      -0.16998327       0.00000000
Cl      11.89880464      19.98173603      13.39391634       0.79115943      -1.90825311      -1.28652539       0.00365350       0.17856610      -0.01041494      -0.12180312       0.00000000
O       13.88907595      17.46225789      10.35568277       2.33099425      -1.74353797       1.36592054       0.00373790      -0.50903842       0.06422786      -0.18791797       0.00000000
O       12.11948187      14.90749290      18.79554938      -2.01204009       1.34639708      -0.17821442       0.00422099      -1.01288033      -0.55745694       0.02483912       0.00000000
Cl       9.15094354      12.14878590      17.73562212       3.19321138       1.45294545      -1.40685098       0.01892555      -0.11682872       0.57968357      -1.01701717       0.00000000
O        9.17058170      12.49761801      13.07792329       1.13557970       0.71042291       1.50084906       0.00324209      -0.35741713       0.96949015       0.55789521       0.00000000
Cl      12.01558033       9.49338538      12.12702872       0.12114279      -0.23999216      -0.83697637       0.00508618       0.03192227      -0.81825043      -0.10487001       0.00000000
Cl      19.13385928      16.03149476      12.37854447       0.21811548      -1.74826225      -1.43450343       0.00621260       0.10081237      -0.10218320       0.11002499       0.00000000
O        3.13681929      21.54608851      14.11063513       0.70362489       0.57178096      -0.54679918       0.00351929      -1.94041403      -1.10970292       1.69842715       0.00000000
O        3.96620062      22.02063061      13.38492889       0.42006965       1.35649972      -1.33470604       0.00351929       1.94095977       1.10973744      -1.69788073       0.00000000
O       19.39050915      11.83821827      13.02690017       0.61521892       0.48601967      -0.29524364       0.00358112       0.10220643      -1.04047090       0.40325936       0.00000000
O       15.67487498      11.81141976      11.62043500      -1.97091470       1.50198377       0.84166608       0.00414171      -0.52610023       0.12140343       0.72802072       0.00000000
O       17.04414232      15.14634155      10.44551958       3.08157948      -4.09221222       2.60960081       0.03613809       0.75406688      -0.97811420       0.25744833       0.00000000
O       12.10034278      11.85887395      16.63068052      -4.53264210       2.01225486       3.90764246       0.05644347       1.27173877       0.39239635      -1.07602548       0.00000000
O       16.34770159      18.87777172      13.54787781       1.20991553       0.11978322      -0.75187856       0.01026245      -1.07698030      -1.11811972       1.16034120       0.00000000
O       17.02256486      19.57801505      12.82865374       0.05212477       1.13604615      -1.10616414       0.00294743       1.11790367       1.15715027      -1.18544611       0.00000000
Cl       9.59911366      16.46261501      13.45451359      -0.32668866      -0.13273658       3.29584393       0.00473130      -1.20023328       0.23018827      -0.40713170       0.00000000
43
Lattice="29.7 0.0 0.0 0.0 29.7 0.0 0.0 0.0 29.7" Properties=species:S:1:pos:R:3:momenta:R:3:c_unc:R:1:forces:R:3:magmoms:R:1 step=80.0 target_atoms="30 38 39" energy=-129.89804614 stress="0.00031929333093411725 -7.095441196940976e-06 -5.641702595489528e-05 -7.095441196940976e-06 6.431498167071494e-05 -0.0001129939656151048 -5.641702595489528e-05 -0.0001129939656151048 0.0005761245533211566" dipole="_JSON [[0.0, 0.0, 0.0]]" magmom=6.6050297 free_energy=-130.0551389 pbc="T T T"
Ag      12.21216529      16.08298790      11.73664554      -4.26271119       0.94537530      -0.17822968       0.00760885      -0.84022282       0.56807365       0.35270729       0.00000000
Ag      15.57293263      13.85834280      16.32037600       1.50510145       5.40975697      -1.98246364       0.00375763       0.60297701       0.49996017      -0.01117141       0.00000000
Ag      14.04985404      10.66158679      12.21960753       1.94834896       1.17444460      -2.09288073       0.00262952      -0.29573226       0.14316899      -0.22845918       0.00000000
Ag      15.29278948      16.35249417      15.41306278       0.37267932      -1.64816995      -0.72857661       0.00586653       0.61173196      -0.17284262      -0.05763644       0.00000000
Ag      13.01927258      14.51240119      15.30803867       5.16444697       1.77318881      -4.23325492       0.00469992      -0.32504964      -0.77866852       0.47726206       0.00000000
Ag      11.74664003      13.61463812      10.96015480       4.19708089       4.16086554      -5.81327228       0.00231231       0.33725816      -0.86768451      -0.47628614       0.00000000
Ag      10.69284229      14.14922716      13.33517693       0.05454841      -4.27633769      -3.22853005       0.00517749      -0.08399722      -0.12206237       0.42362670       0.00000000
Ag      10.30875310      10.99411013      12.52921615      -1.89783782      -1.46393841      -0.46553509       0.00364235       0.44420303       0.23858689       0.03904225       0.00000000
Ag       9.16279124      12.61499118      15.23831846       1.26430819      -5.76288767       2.44501386       0.00505754       0.06613637      -0.63130671       0.56178406       0.00000000
Ag      14.24877006      15.53069935      13.19539503      -6.92337013       3.55705548       3.15103931       0.00605757       0.62370155      -0.03026155      -0.63111294       0.00000000
Ag      12.94880455      15.53290931       9.38100055      -6.47045990       0.93685418      -3.73570221       0.00560383       0.42721810      -0.28256738      -0.80646529       0.00000000
Ag      12.22680563      11.84075539      14.30942561      -3.99047035       1.18686330      -0.69585273       0.00523426       0.19779701       0.27213989       0.90907417       0.00000000
Ag      14.42434936      11.54249926      16.33149632       4.21955591      -6.51613590       1.94534677       0.00567953      -1.28363502      -0.52465920      -0.07637930       0.00000000
Ag      15.04515090      12.90756710      13.72397480       1.38321155      -4.15975732       3.71738974       0.00563912      -0.36455578      -0.03281032       0.53437028       0.00000000
Ag      17.40680463      11.91351356      12.79776893      -0.81916133      -4.16838156       4.72142123       0.00310814      -0.14409709      -0.48193032      -0.69667908       0.00000000
Ag      14.80614830      13.80120461      10.98123354       0.12159025      -2.33261618      -2.59911669       0.00311736      -0.08876735      -0.08839067      -0.23848506       0.00000000
Ag      11.71096276      16.72424875      14.31662159      -1.69849919       5.76022858      -1.72063608       0.00083690       0.99833971       0.25212503       0.79565884       0.00000000
Ag      10.74220760      14.03349433      17.08280991      -3.19944624      -2.37186717       1.33980663       0.00869103       0.48380316      -0.01106010       0.45272776       0.00000000
Ag      12.77557173      16.24332960      17.53859329       2.96096107      -2.39036836      -2.89340115       0.00636045       1.45947686       1.26059073      -1.13519034       0.00000000
Ag      13.29900572      13.21149252      18.43116829      -1.03531225       2.09909585       2.45725828       0.00850065      -0.19136011       0.27959877      -0.16538023       0.00000000
Ag      19.45772990      13.67667233      12.41854361      -0.31986600      -0.43753042      -0.01829046       0.00442339       0.29022756       1.55908277      -0.10321778       0.00000000
Ag      17.01895014      14.85952787      13.21431469       1.63987039      -1.04062143       3.32117990       0.00216861      -0.25147021       0.16474826      -0.07383284       0.00000000
Ag      12.64544291      18.80786325      11.45541810       1.01144418       2.71171028       2.61211163       0.00260936       0.84715327      -0.51015184      -0.08508630       0.00000000
Ag      13.42516142      18.79491999      14.85452396       1.34102866      -3.62895650       0.64862150       0.00240657       0.05758424      -0.40346096       0.68394455       0.00000000
Ag      15.52231061      16.32604837      10.45259584      -6.84921531      10.22608963      -1.75664165       0.00339994       2.35384968      -1.42048026       0.55959751       0.00000000
O       14.28298404      17.70858772      16.51794668       0.71272199       0.97073285       1.03175404       0.00356878      -1.41768831       0.39484104       0.15337739       0.00000000
Cl      15.72794411      12.62468485      18.52813073       0.34252359      -0.26173872       0.04180649       0.00391039       0.09547595      -0.20130842      -0.19599838       0.00000000
Cl      11.91025958      19.95539444      13.37589203       0.85204078      -1.87910141      -1.29425311       0.00394986       0.06788705       0.15166081       0.11815167       0.00000000
O       13.95122828      17.41168297      10.39649428       1.56546798      -1.42705791       1.29337866       0.00451968      -2.17251927       1.38999016      -0.23510188       0.00000000
O       12.05004801      14.94253596      18.79152550      -2.48833064       0.92203376      -0.09492089       0.00609972      -0.75566041      -0.83008143      -0.09833515       0.00000000
Cl       9.19442466      12.17023703      17.71263124       3.07554433       1.60963184      -1.89757166       0.02378064      -0.44826845       0.29064601      -0.78321148       0.00000000
O        9.20246890      12.52557918      13.12838670       0.93388183       1.08296400       1.75605366       0.00289689      -0.43497942       0.66361243       0.23370586       0.00000000
Cl      12.01703246       9.48747407      12.11513107       0.09088944      -0.60786173      -0.87943075       0.00562117       0.04671974      -0.75093866      -0.09450937       0.00000000
Cl      19.13728118      16.00729569      12.35899444       0.27325175      -1.72539106      -1.38676981       0.00798172       0.08402701       0.07101805       0.04700584       0.00000000
O        3.14879802      21.55805999      14.10234740       0.29124741       0.33216331      -0.18226887       0.00207275       0.55999348       0.33940910      -0.51057540       0.00000000
O        3.98869976      22.06782380      13.33548715       0.83105756       1.59373286      -1.69690967       0.00207275      -0.55984479      -0.34022026       0.51082279       0.00000000
O       19.41016589      11.84469009      13.02122950       0.64829519      -0.08429916      -0.07359323       0.00314919      -0.01126153      -1.23600970       0.41560907       0.00000000
O       15.61238651      11.85935562      11.65079065      -2.04620514       1.60478042       1.14247236       0.00416762       0.11191353       0.07184345       0.69760037       0.00000000
O       17.13671345      15.01819308      10.52653041       2.75571750      -4.11262845       2.65035987       0.04438578      -1.21577021       0.56975013       0.20351228       0.00000000
O       11.97092749      11.92361304      16.74258532      -3.93346302       2.24106072       3.40464618       0.06851884       1.42621292       0.33812995      -1.01535265       0.00000000
O       16.37839040      18.87453595      13.53164926       0.89550261      -0.21915637      -0.41842648       0.00315746       0.08092253       0.09870889      -0.08626393       0.00000000
O       17.03031400      19.61994816      12.78764304       0.34378378       1.48238860      -1.44921127       0.00231719      -0.05548842      -0.06659668       0.06833890       0.00000000
Cl       9.59063062      16.46103275      13.49876947      -0.90880875      -0.10218172       3.09100087       0.00577374      -1.33424160       0.16580730      -0.43318909       0.00000000
43
Lattice="29.7 0.0 0.0 0.0 29.7 0.0 0.0 0.0 29.7" Properties=species:S:1:pos:R:3:momenta:R:3:c_unc:R:1:forces:R:3:magmoms:R:1 step=85.0 target_atoms="38 30 39" energy=-129.0589555 stress="0.0003030709371839063 1.616106468154001e-05 -9.039474057965233e-05 1.616106468154001e-05 8.9971098147733e-05 -0.00015291327236922818 -9.039474057965233e-05 -0.00015291327236922818 0.0005859555793113718" dipole="_JSON [[0.0, 0.0, 0.0]]" magmom=7.0510612 free_energy=-129.21588554 pbc="T T T"
Ag      12.19187628      16.08797603      11.73621700      -4.64187550       1.24398989      -0.01775250       0.00750185      -0.82628061       0.57991080       0.29204259       0.00000000
Ag      15.58026494      13.88342553      16.31136406       1.70785007       5.57326136      -1.96471982       0.00422030       0.51228055       0.12235476       0.07131205       0.00000000
Ag      14.05817500      10.66697238      12.20989919       1.66188483       1.15926397      -2.16131295       0.00358695      -0.79790952      -0.19333168      -0.09852742       0.00000000
Ag      15.29512030      16.34502689      15.40978207       0.63885914      -1.59294877      -0.69565331       0.00576475       0.48175094       0.27308136       0.16863096       0.00000000
Ag      13.04236068      14.51965075      15.28943949       4.95691507       1.40289600      -3.92215248       0.00488895      -0.51392912      -0.86590437       0.61177405       0.00000000
Ag      11.76615020      13.63257127      10.93325893       4.36805911       3.70978568      -5.99328778       0.00263081       0.28020291      -0.93555810      -0.41906322       0.00000000
Ag      10.69311598      14.12981002      13.32099848       0.08669754      -4.22398213      -3.00138198       0.00557426       0.13732334       0.20996304       0.40593697       0.00000000
Ag      10.30064249      10.98776676      12.52712848      -1.67625735      -1.30801166      -0.44479205       0.00357042       0.30471959       0.36722012       0.10922586       0.00000000
Ag       9.16853661      12.58819679      15.25022296       1.25615549      -6.00745221       2.80328351       0.00458230       0.07041787      -0.57129557       0.67507408       0.00000000
Ag      14.21806389      15.54688400      13.20876214      -6.54835681       3.54356480       2.69519229       0.00621458       0.80354594      -0.06808984      -0.87256872       0.00000000
Ag      12.91998657      15.53702179       9.36311783      -6.19008311       0.86962229      -4.11192635       0.00561214       0.47208268      -0.23285897      -0.75480728       0.00000000
Ag      12.20898866      11.84657838      14.30736762      -3.82097728       1.37270189      -0.23001401       0.00496484       0.35192695       0.30174191       0.86794020       0.00000000
Ag      14.44224779      11.51228482      16.34018980       3.66189858      -6.73008478       1.87496591       0.00584481      -1.06198664      -0.23156763      -0.13893852       0.00000000
Ag      15.05092371      12.88865764      13.74149486       1.14738995      -4.13079027       3.97671787       0.00576050      -0.46620872       0.11843787       0.61962298       0.00000000
Ag      17.40284567      11.89402983      12.81853957      -0.90346208      -4.37541440       4.39872271       0.00427564      -0.02726608      -0.40037447      -0.70200309       0.00000000
Ag      14.80657746      13.79049810      10.96917306       0.05777809      -2.33319318      -2.70663015       0.00273445      -0.13785087       0.38535726      -0.29517685       0.00000000
Ag      11.70438533      16.75074040      14.30969246      -1.19201693       5.86537737      -1.32385206       0.00097978       0.98332912       0.14920317       0.77352237       0.00000000
Ag      10.72836815      14.02279623      17.08904519      -2.86787832      -2.24633404       1.39272849       0.00966591       0.69448251       0.42709980       0.41020341       0.00000000