32
Lattice="29.7 0.0 0.0 0.0 29.7 0.0 0.0 0.0 29.7" Properties=species:S:1:pos:R:3:momenta:R:3:c_unc:R:1:forces:R:3:magmoms:R:1 step=50.0 target_atoms="25 15 24 21 14 13 31 11 17 23 9 20 29 22 16 18 8 10 4 7 6 5 12 2 3 1 0 30" energy=-80.25158325 stress="-0.0007002793546193282 -6.365686446546357e-05 -0.00010230505043704605 -6.365686446546357e-05 -0.0005785261736856322 2.7715939318742056e-05 -0.00010230505043704605 2.7715939318742056e-05 -0.0003533604926261573" dipole="_JSON [[0.0, 0.0, 0.0]]" magmom=4e-07 free_energy=-80.3382714 pbc="T T T"
Ag      13.81170029      14.85205062      14.85337521      -0.46631922       0.30666416       0.17383356       0.04632401       0.15801404       0.01192270      -0.01528167       0.00000000
Ag      15.90186737      14.85085322      12.79170824       1.06569953       0.06173749      -0.26275240       0.03895987       0.13991013      -0.08868935       0.09990974       0.00000000
Ag      15.87479809      12.75553251      14.82686373       0.09817537      -1.78156774      -0.85560196       0.03714482       0.10784003      -0.15141326       0.24428810       0.00000000
Ag      15.91211401      16.90802772      14.83504243       2.48856606      -0.93985665      -1.72545586       0.03814879       1.06179486      -0.54751498      -0.66592427       0.00000000
Ag      15.83106960      14.86181121      16.93210911      -1.58652661       0.19106589       1.20781218       0.03232912      -0.18823867      -0.11460926      -0.03483468       0.00000000
Ag      11.81276442      14.83248507      12.81907088       1.63345789      -0.75445017       1.01598558       0.03404858       0.06662707       0.00297119       0.19254809       0.00000000
Ag      13.80808005      16.93658420      12.80927211      -0.84685770       1.57622120       1.71957287       0.03294241      -0.60164269       0.28527348       0.70837699       0.00000000
Ag      13.82669354      12.80173582      12.80340673       0.11597126       0.25379936       0.12700236       0.03233067       0.04482035       0.01410292      -0.36153211       0.00000000
Ag      11.75330914      12.77207516      14.85759928      -1.59952770       3.47055508       0.58940967       0.02401514      -0.90728864       3.06519181       0.14704004       0.00000000
Ag      13.81224126      12.81925487      16.89020073      -0.46813997       0.76187668      -0.51423864       0.01689582       0.05034352       0.04727619       0.04918251       0.00000000
Ag      13.81589087      14.83350606      10.77711828      -0.47919127      -3.15549115       1.29326584       0.03096899       0.08820382      -1.50968479       0.34083875       0.00000000
Ag      13.82199802      10.75263304      14.82247061       5.56858615      -0.25260628      -0.92837190       0.01658495       4.07679907      -0.32459293      -0.08741870       0.00000000
Ag      17.90272637      14.84931536      14.83974655      -1.07594423      -0.04703023      -0.37531301       0.03659706      -0.18225374       0.00886349      -0.05330505       0.00000000
Ag      17.90053673      12.81028152      12.78370363      -1.02538857       0.43218466      -0.71712202       0.01447544      -0.10495125       0.14337285      -0.26977530       0.00000000
Ag      15.87507103      12.81330249      10.77513008      -0.00502712       0.52036661       1.06675150       0.01441923      -0.08685311       0.23030652       0.13391257       0.00000000
Ag      15.84915769      10.79185188      12.82436620      -1.03255913       1.72342549       1.04828561       0.01172754      -0.01960975       0.12228474       0.18195858       0.00000000
Ag      11.83257774      16.95296339      14.84595973       1.77755312       1.46254893      -0.30086833       0.02168014      -0.01527741      -0.04433891      -0.29142682       0.00000000
Ag      11.76510893      14.87512868      16.94043522      -2.41989574      -1.48819564      -1.34009615       0.01667270      -2.57117476      -2.96906469      -3.30958995       0.00000000
Ag      13.83180126      16.93385483      16.95490128       0.26744233       1.03050235       1.69500037       0.02189847       0.35161278       0.43332884       0.22192779       0.00000000
Ag      13.80337626      14.86173055      18.92518532       2.23181416      -2.84196289       0.82648313       0.00925540       1.87437085      -2.06016457       1.24022410       0.00000000
Ag      17.92185761      16.90802144      12.79159385      -0.15958981       0.10780678       0.00240476       0.01690582      -0.21841034      -0.11238393       0.82122560       0.00000000
Ag      17.93587324      14.85645777      10.73870594       0.25937970      -0.59701003      -0.21426163       0.01425754      -0.21283964      -1.17341477       0.33331183       0.00000000
Ag      15.88216096      16.94772314      10.72146828       3.20041770       2.09855502      -1.24059308       0.01743681       1.30931364       0.34313950      -0.46949979       0.00000000
Ag      13.86161357      18.92347750      14.84734952      -0.40081195       0.16944545      -2.30226597       0.01679776      -1.60786475       0.94418251      -1.94758212       0.00000000
Ag      15.85629065      18.91470799      12.81554029      -0.77342954      -1.39291670       0.60791498       0.01219753       0.05191738      -0.07237814       0.13685226       0.00000000
O       15.04508614      18.19991295      16.22556814       0.00054713       0.56035363       0.31063019       0.01091918       2.57903888       1.01103406       1.41149564       0.00000000
Cl      17.71551713      13.20724677      17.04514948       0.61335980       0.43431981      -0.85568855       0.00630980       0.29722819       0.20034820      -0.25711614       0.00000000
Cl      18.32816250      17.19897457      10.32166112      -2.06267476      -1.37210261       1.35267818       0.00951471       0.37472520       0.73450209      -0.64278164       0.00000000
O       13.91913853      16.85803184      10.69299908      -0.41515414       0.62933176      -0.53602710       0.00834096      -1.19833968       1.07431955      -1.02926703       0.00000000
O       12.54882069      16.09874628      18.09855991      -1.23476343       0.83123702      -0.64789255       0.01718790      -1.41044434       3.30627260       3.22346822       0.00000000
Cl       9.88702029      15.17705975      14.86615254      -1.48617679      -0.42921777      -0.01235970       0.05027787       0.22325299      -0.28710485       0.13174476       0.00000000
O       11.99166964      10.91184166      14.73492667      -1.78299253      -1.56958953      -0.20812194       0.01639111      -3.53062407      -2.52333878      -0.18297031       0.00000000
32
Lattice="29.7 0.0 0.0 0.0 29.7 0.0 0.0 0.0 29.7" Properties=species:S:1:pos:R:3:momenta:R:3:c_unc:R:1:forces:R:3:magmoms:R:1 step=130.0 target_atoms="4 0 19 3 17 29 22 25 12 8 11 10 5 18 27 30 31" energy=-80.84686928 stress="-0.0006443821028199091 0.00019645473283890277 8.071501501215764e-05 0.00019645473283890277 -0.0005204951870934205 4.110904449917187e-05 8.071501501215764e-05 4.110904449917187e-05 -0.0003987107861310768" dipole="_JSON [[0.0, 0.0, 0.0]]" magmom=1.3e-06 free_energy=-80.9083842 pbc="T T T"
Ag      13.81452928      14.92036421      14.87035779       1.09868580       1.81913101       0.64346547       0.01029415       0.53769726       0.07115027       0.30992419       0.00000000
Ag      15.93114778      14.88677861      12.77448495      -0.83145078       1.24947753      -0.24263938       0.00592455      -0.14451130       0.08092964       0.03456101       0.00000000
Ag      15.93547056      12.63843247      14.86266329       1.83207049      -0.62036686       2.29612806       0.00939294       0.19644517       0.55828778       0.38333459       0.00000000
Ag      16.12783460      16.85927202      14.83386368       2.06278097       0.13790935       2.52107985       0.01045146      -0.20162283      -0.02897078      -0.09934695       0.00000000
Ag      15.71852814      14.86138095      17.01458105      -1.39709043       0.09358880       0.66547276       0.01004571       0.20289224      -0.02026054      -0.38925261       0.00000000
Ag      11.97872371      14.77569197      12.92606275       2.63838375      -0.13182932       1.37164753       0.01391783      -0.73649466       0.55109029      -0.08392496       0.00000000
Ag      13.69470131      17.05851138      12.80330648      -2.11661135       1.26741307      -2.25540682       0.00895010      -0.37950163      -0.07524995       0.20435836       0.00000000
Ag      13.78381451      12.79232984      12.80895205      -1.07918079      -1.25203650       0.57588461       0.00887090       0.19413290      -0.66183387       0.21793993       0.00000000
Ag      11.53697632      12.90677463      14.88977737      -4.93359182       0.23023043       0.08144297       0.01250059      -1.55304789       1.96444702      -0.30038294       0.00000000
Ag      13.78068613      12.86109362      16.82744703      -0.50960510       0.30547864      -1.19470880       0.00700724      -0.01362281      -0.15222927      -0.03578650       0.00000000
Ag      13.78074137      14.63312147      10.92822844      -0.53639501      -2.25075450       2.52339790       0.01377181       0.09090757      -1.21888997      -0.35774449       0.00000000
Ag      14.06512733      10.72243946      14.78380833       0.93198749      -1.35946786       0.71837820       0.01280305       4.49864496      -1.68716278       0.38933163       0.00000000
Ag      17.79831737      14.82475450      14.81521683      -1.45083923      -0.38689928      -0.95629339       0.01211840       0.45669621       0.10717455      -0.44594366       0.00000000
Ag      17.87070832      12.84850515      12.73480492       0.64031329       0.22013559      -0.16879080       0.00484797       0.06049539      -0.34901139       0.14266665       0.00000000
Ag      15.84855344      12.86152001      10.81544546      -0.82675504       0.38696820      -0.52795209       0.00650102      -0.14324314      -0.22815888      -0.19195004       0.00000000
Ag      15.81542042      10.89311432      12.83003820       0.95115734       0.38958533      -1.99679740       0.00697095       0.58611785      -0.37501289      -0.48889627       0.00000000
Ag      11.88018568      17.02575746      14.82505552      -0.65008135       0.52022430       0.32199626       0.00547376      -0.17443729      -0.15071515       0.04764190       0.00000000
Ag      11.44041797      14.70461644      16.76400611      -3.98318085       0.47474281       0.34004320       0.01073750       0.12977150       0.88547522       0.46001507       0.00000000
Ag      13.89248664      17.10696384      17.15724673       1.05666192       3.31376001       4.06066289       0.01477436      -0.14603477      -0.54907994      -0.09917614       0.00000000
Ag      13.90156018      14.66361228      18.98191830      -1.01407673      -1.54942774       0.30029034       0.01041312       0.81468926      -1.18618260       0.85458764       0.00000000
Ag      17.95216410      16.89418111      12.91267759       1.51307527      -0.30177358       1.08730609       0.00648094       0.22391091      -0.06430745      -0.79118648       0.00000000
Ag      17.93919032      14.61037489      10.73481948       0.51283059      -2.99727471      -0.65528465       0.00868698       0.14690826       0.77628238      -0.21473904       0.00000000
Ag      15.91182725      17.14691169      10.57250200       1.49847079       3.68411798      -3.09821729       0.01148118       1.18056322      -0.11828692      -0.14953511       0.00000000
Ag      13.82233314      18.99902056      14.64928221       0.51699378       1.35338515      -0.46422248       0.00809521      -0.52078624       0.28307402       0.22559656       0.00000000
Ag      15.79900594      18.81309122      12.84864424       0.00159395      -1.33697427      -0.37746302       0.00520490       0.51197911       0.15645240      -0.26267125       0.00000000
O       15.15663495      18.13330015      16.07563176      -2.50113559      -1.34764331      -2.06226189       0.01155060       0.54451309       1.27680947       0.73701213       0.00000000
Cl      17.89407025      13.43360670      16.73696806       1.25913513       0.81284550      -0.93524566       0.00764340       0.38656317      -0.41216609       0.65799549       0.00000000
Cl      18.50800372      17.40345473      10.18199899       0.44326513       0.45361665      -0.30923843       0.01598867      -0.78005137      -0.46037359       0.48001280       0.00000000
O       13.96535327      16.59724706      10.78616587      -0.55795029      -1.35129311       0.58375921       0.00977582      -0.13261275       1.72252118      -1.26551411       0.00000000
O       12.62518010      15.87876661      18.08240285       2.52948171      -4.37655275      -3.11889939       0.01106107      -1.70680731       0.92328514       0.16204048       0.00000000
Cl       9.81604955      15.17999946      14.91335944       0.47570845       0.40136877       0.30227796       0.01860635       0.04286548      -0.46179525       0.00314458       0.00000000
O       12.33580690      11.21780675      14.73233003       2.42534853       2.14831467      -0.02981182       0.06037355      -4.17301955      -1.15729206      -0.13411245       0.00000000
32
Lattice="29.7 0.0 0.0 0.0 29.7 0.0 0.0 0.0 29.7" Properties=species:S:1:pos:R:3:momenta:R:3:c_unc:R:1:forces:R:3:magmoms:R:1 step=235.0 target_atoms="22 16 30 11 27 12 5 10 2 3 8 19 1 4 7 6 18 17 9 0 29 31" energy=-79.76716564 stress="0.0004372555066058794 -5.741824515830559e-05 0.00020276268907094017 -5.741824515830559e-05 0.00044459940979810366 3.715431196984797e-05 0.00020276268907094017 3.715431196984797e-05 0.0003741157074809315" dipole="_JSON [[0.0, 0.0, 0.0]]" magmom=3.8e-06 free_energy=-79.83441418 pbc="T T T"
Ag      14.06228343      15.15151680      14.99949236       2.07361136       3.23549341       0.90149073       0.02655300      -0.53798024       0.21876749      -0.44705792       0.00000000
Ag      15.73653905      15.03865500      12.73265389      -1.87657281       1.49961490      -0.54729600       0.01762428       0.60019005      -0.22302643       0.32409063       0.00000000
Ag      16.08448642      12.66466769      15.14448671       0.24377167      -0.07105832       2.29629741       0.01713770      -0.01714561      -0.17702928      -0.37672368       0.00000000
Ag      16.16001799      17.09542091      15.17944739      -1.68663646       7.02780489       5.35883356       0.01732751       0.14346251       0.23196492      -0.43922713       0.00000000
Ag      15.75551966      14.81316679      17.01466513       2.10268102      -1.18803937       1.33211249       0.01856175       0.31074199      -0.22570447       0.36632041       0.00000000
Ag      12.00962428      14.95014091      12.96015572      -0.99759554       1.96483845       0.01770536       0.01474711      -0.03519054      -0.26764139       0.53439524       0.00000000
Ag      13.46603745      17.21613705      12.50549902      -2.30534428       3.21323807      -2.73057550       0.01946903      -0.17838988       0.54304322       1.16111553       0.00000000
Ag      13.71402228      12.36151100      13.16390206       2.19125650      -3.95880622       2.48731271       0.01866494       3.12023769       2.01995503      -3.45541543       0.00000000
Ag      10.87410732      12.95121796      14.62960425      -5.03495340      -3.38196686      -5.29347056       0.01734054      -1.32856044       1.72539872       0.15783533       0.00000000
Ag      13.67270069      12.85514204      16.59334701      -2.55200162       0.40999270      -3.43454044       0.02380971      -0.15071802       0.09847868       0.06551724       0.00000000
Ag      13.74229068      14.62103016      10.91102108      -0.34707652       3.19352744      -2.17635995       0.01637088       0.18075706      -1.63911593       0.10418948       0.00000000
Ag      14.44579531      10.38506167      14.96488124       0.82102045      -1.84867467       1.89205873       0.01115159       0.14120649       0.28869111      -0.09085056       0.00000000
Ag      17.92560681      14.74845065      14.65996329       3.74161062      -0.75665691      -0.09851928       0.01401033      -0.31006960       0.57277636       0.45341959       0.00000000
Ag      17.94507180      12.81776015      12.80469331       0.14357806      -0.05356475       0.24458072       0.00767234      -0.32571711       0.00257577      -0.57664254       0.00000000
Ag      15.80078970      12.80744593      10.72600906       0.22629765      -0.54067398      -0.22914050       0.00933350       0.05219548       0.31578818       0.41078425       0.00000000
Ag      16.03809889      10.80692555      12.58523743       2.38540118      -2.23829090      -0.91927186       0.00540692      -0.14548166       0.09102518       0.67809507       0.00000000
Ag      11.77464763      17.02068724      14.85273903      -0.39362710      -0.11880959      -0.33575975       0.01047341       0.37232526      -0.03615962      -0.14856626       0.00000000
Ag      10.95096675      14.92379184      16.90312288      -1.62356815       5.11753417       3.14009085       0.02259721       1.02733407       0.37226176      -0.15982426       0.00000000
Ag      14.10072490      17.27280996      17.33149852       2.03208642      -2.43910010      -0.57188888       0.02108161      -0.74469341      -1.25242669      -0.04446772       0.00000000
Ag      14.05304177      14.12521309      19.34782390       1.15609892      -7.11126787       2.70811284       0.01734136      -0.18669397       0.13110765      -0.81422123       0.00000000
Ag      18.11314415      16.83954146      12.78964716       0.55971197      -1.05559657      -0.95054268       0.00792121      -0.68792172      -0.29164915       0.64002818       0.00000000
Ag      17.99523798      14.64933024      10.61361747      -0.36441638       1.56918381      -0.55098982       0.00938168      -0.42086553      -0.38200548       0.48315045       0.00000000
Ag      16.00635726      17.30333568      10.30420122      -1.66655713      -0.98458299      -1.92541872       0.01006152      -0.40506801      -0.59848191       0.32867069       0.00000000
Ag      13.64614961      19.21039356      14.51761767       0.07536163      -0.45036233       0.71857428       0.00691298       0.48018323      -0.81406033       0.46171418       0.00000000
Ag      15.91709795      18.65871449      12.75034643       0.71944633      -2.33454290       0.00270683       0.00756381      -0.10005718      -0.12642623       0.40837226       0.00000000
O       15.13865964      18.69232082      16.29386509      -0.75457016       0.23615165      -2.91931998       0.00291513      -0.17270534      -0.14975881      -0.43489646       0.00000000
Cl      18.27974428      13.44430489      16.85379971       0.35914707       0.93331581      -0.60877802       0.00570040      -0.34216923       0.27228510      -0.28888087       0.00000000
Cl      18.50687328      17.12201405      10.36644505       2.85536440      -0.63109184      -0.71881628       0.01291398       0.25527596       0.41228292      -0.75739689       0.00000000
O       13.97473299      16.58184830      10.63340725      -0.38399663      -1.02438924       0.09832796       0.00755234       0.70897806       1.54391350      -1.53772806       0.00000000
O       12.75672902      15.37196377      18.17072281       0.59818380       0.68685890       0.47357892       0.04015873      -0.06680214       0.47587913      -0.69326410       0.00000000
Cl       9.42624532      15.22206280      14.63431367      -2.22291416      -0.23139925      -1.17708395       0.01107739       0.61635179      -0.75140508       0.55351403       0.00000000
O       12.42739595      11.82621340      14.39117846      -0.07479871       1.33132044       3.51598876       0.05128321      -1.85300998      -2.38130395       3.13395055       0.00000000
32
Lattice="29.7 0.0 0.0 0.0 29.7 0.0 0.0 0.0 29.7" Properties=species:S:1:pos:R:3:momenta:R:3:c_unc:R:1:forces:R:3:magmoms:R:1 step=300.0 target_atoms="4 3 11 10 6 19 17 7 9 0 18 29 8 30 31" energy=-79.33641027 stress="0.0009059341842569471 -0.00015980522164413797 5.599774009634582e-05 -0.00015980522164413797 0.0006173908214352095 -3.293614406484791e-05 5.599774009634582e-05 -3.293614406484791e-05 0.0007003594269399041" dipole="_JSON [[0.0, 0.0, 0.0]]" magmom=-1.24e-05 free_energy=-79.43053075 pbc="T T T"
Ag      14.11082311      15.36687764      14.97331825       0.08958352       3.70174209      -1.21590241       0.01502791      -0.10973310      -0.20476154      -0.18202909       0.00000000
Ag      15.73200712      15.08898423      12.73932206       1.38039531       0.21794070       0.55160033       0.00962430       0.36433421      -0.22099517       0.02548816       0.00000000
Ag      16.06530996      12.64719069      15.17078394      -0.83465106      -0.37379897      -1.49216766       0.00684948       0.05666188       0.14159143      -0.47841375       0.00000000
Ag      16.19755754      17.39005626      15.37953094       2.48495696       3.31083697       1.79448416       0.01041527       0.00367071       0.19453071      -0.40665767       0.00000000
Ag      15.89270602      14.72723160      17.12148301       1.62260065      -1.59740222       1.50176632       0.01004538      -0.30988679      -0.14872271      -0.08303239       0.00000000
Ag      11.96316753      14.98619145      13.03606391       0.25160398      -1.25285700       2.05913967       0.00848597       0.51602388      -0.51764745      -0.11826370       0.00000000
Ag      13.34334980      17.40382701      12.45173957      -1.47522745       1.62488093      -1.37541597       0.01053204       0.10081438      -0.55230755      -0.92995385       0.00000000
Ag      13.94545607      12.33292297      13.18258976       4.04761177       2.71813602       0.44865301       0.01438066      -0.07034563       0.92116646      -0.14621634       0.00000000
Ag      10.58100279      12.88156586      14.37789745      -1.49296026      -2.73489064      -2.90006931       0.02955137       1.16654234      -0.71163458       0.86783291       0.00000000
Ag      13.56405636      12.96686691      16.45660929      -0.93737934       2.93334243      -1.29222621       0.01463518      -0.53494489      -0.62535403      -0.03856762       0.00000000
Ag      13.72777986      14.65979498      10.82746627       0.00505619       1.60718108      -0.69959099       0.01052754       0.19723884       0.81041637       0.21381719       0.00000000
Ag      14.47492690      10.36675231      15.05003962      -1.08134800       1.80041532       0.75635684       0.01042269      -0.91078430       0.49417471       0.01598100       0.00000000
Ag      18.06314002      14.80874368      14.67031757       0.50451990       2.52470448      -0.30389589       0.00957602      -0.57895137       0.48874392      -0.23989201       0.00000000
Ag      17.88636017      12.84613341      12.75020485      -2.08675582       1.17472483      -1.70090019       0.00711071      -0.36958818       0.17124232      -0.14724156       0.00000000
Ag      15.81496743      12.81715131      10.79747359       0.13339411       0.67392002       2.47913277       0.00743061      -0.08987786       0.16271577       0.34119642       0.00000000
Ag      16.11842678      10.66777038      12.64767779       0.35660371      -2.35224940       3.01174192       0.00481022      -0.18493353       0.15997037       0.50292326       0.00000000
Ag      11.76459421      16.99955517      14.80316209      -0.27659698      -0.32360034      -0.92346901       0.00543522       0.18167991       0.32419301       0.10649041       0.00000000
Ag      11.05462631      15.26778313      16.99542782       4.99827691       6.10409007      -0.26612641       0.01416414       1.00914677       0.00616016      -0.23561660       0.00000000
Ag      14.11213719      16.99156848      17.23175532      -1.46106029      -5.14336250      -2.52023997       0.01813080      -0.52591504       0.10946883       0.15094473       0.00000000
Ag      14.04416674      13.80180472      19.28975734      -1.23026467      -3.26612135      -4.91060918       0.01220620      -0.16453296       0.53236242      -1.01639391       0.00000000
Ag      18.05709451      16.74974903      12.76724727      -2.05751213      -1.56907816      -0.53827423       0.00870145      -0.16472801       0.00744318      -0.12161788       0.00000000
Ag      17.89392243      14.74145004      10.66245131      -2.82451578       2.10785089       1.84879747       0.00724134      -0.19981242       0.09196739       0.20400509       0.00000000
Ag      15.99993380      17.15746443      10.25722534       1.73738514      -3.51915778       0.35870526       0.00794456      -0.48531664      -0.32692483       0.24429364       0.00000000
Ag      13.58818916      19.11521609      14.46422319      -1.52823324      -2.32810722      -1.51607504       0.00698189       0.60081765      -0.34762481       0.98115829       0.00000000
Ag      15.92750211      18.48537669      12.78098947      -0.51330898      -3.44736294       0.88129571       0.00887158      -0.20338993      -0.12194434       0.25729813       0.00000000
O       14.79108230      18.68890733      16.62661197      -0.00886213      -0.37293079       2.81661424       0.00617924       0.76636783       0.54758299      -1.34815869       0.00000000
Cl      18.27809401      13.65381978      16.76643788      -0.04277995       0.98051617       0.53911147       0.00402257       0.04894153      -0.16129369       0.44963087       0.00000000
Cl      18.84373253      17.08698337      10.10925541      -0.28273370      -0.61840585      -1.14301883       0.00452936      -0.75798513      -0.22816150       0.26494294       0.00000000
O       13.78831707      17.02082982      10.27807165      -0.84288318       0.00295603       0.81988207       0.00598025       0.90845111      -0.68215045       0.78125624       0.00000000
O       13.03841466      15.59433229      18.06137506      -0.10284529      -1.70885940       0.24747142       0.02635206      -1.18673699      -1.51727090       0.56409088       0.00000000
Cl       9.52876010      15.07521818      14.67905554       2.37879521       0.42575310       1.60594736       0.03717554       0.00880258       0.07458911       0.40813636       0.00000000
O       12.16258838      11.24214303      15.86781770      -0.91086513      -1.30080659       1.07728127       0.05525017       0.91796917       1.12847444      -0.88743145       0.00000000
32
Lattice="29.7 0.0 0.0 0.0 29.7 0.0 0.0 0.0 29.7" Properties=species:S:1:pos:R:3:momenta:R:3:c_unc:R:1:forces:R:3:magmoms:R:1 step=335.0 target_atoms="5 17 31 18 19 8 29 30" energy=-80.34123239 stress="0.0004922933213231919 -2.3175041701369958e-05 -6.942456815058276e-05 -2.3175041701369958e-05 0.000360121938186754 -7.864300250311081e-05 -6.942456815058276e-05 -7.864300250311081e-05 0.00025463635201235864" dipole="_JSON [[0.0, 0.0, 0.0]]" magmom=-2.88e-05 free_energy=-80.45338294 pbc="T T T"
Ag      14.11638269      15.47277372      14.91669104       0.44987132       2.82698370      -2.35405982       0.00766913       0.21304469      -0.48327342      -0.40095307       0.00000000
Ag      15.78594880      15.08514637      12.76298050       1.76640961      -0.53299023       1.03523106       0.00920796      -0.02243701      -0.38987376       0.18089548       0.00000000
Ag      16.04671440      12.64289407      15.10543931      -0.06240941       0.21193092      -2.30866881       0.00798680       0.31213592       0.31216475      -0.21352176       0.00000000
Ag      16.26752213      17.49733574      15.43491413       1.74186117       3.31721161       1.76868067       0.00613525      -0.03713894      -0.03856213      -0.31348135       0.00000000
Ag      15.92912414      14.67154063      17.15159977       0.69089371      -1.85924364       0.15655070       0.00491120      -0.28363789      -0.06389842      -0.28921138       0.00000000
Ag      12.00674971      14.91233221      13.09047393       2.50523921      -3.38462643       1.28823643       0.01012439       0.47039921      -0.61792094      -0.26481247       0.00000000
Ag      13.30050461      17.42399932      12.39268480      -1.49630596      -0.10736381      -1.31872353       0.00661742      -0.39857432      -0.07807775       0.69895996       0.00000000
Ag      14.06738477      12.46567611      13.19454348       3.41529860       5.49441409       0.17192481       0.00838046      -0.41486596       0.87254870      -0.33065136       0.00000000
Ag      10.59052047      12.75638652      14.32257008       1.94471602      -4.72017571      -0.64999577       0.01854167       1.12876966      -0.31994891       0.67478364       0.00000000
Ag      13.50736405      13.04411706      16.40701180      -2.60544403       2.18199639      -1.85055506       0.00904391      -0.10938454      -0.10044522      -0.18208704       0.00000000
Ag      13.73444305      14.74600895      10.82275787       0.42156892       3.04210159       0.57034212       0.00672380       0.18227823      -1.01703467       0.64712314       0.00000000
Ag      14.38877958      10.45188985      15.07432659      -4.35997723       3.50067913       0.74897542       0.00634530      -0.91816537       0.38483202      -0.01747334       0.00000000
Ag      18.05033152      14.89497768      14.65603545      -1.27035888       2.59149883      -0.25382628       0.00966521      -0.50950853      -0.09228884       0.35790605       0.00000000
Ag      17.80878856      12.89429536      12.70122979      -2.63919713       1.78007318      -1.14649525       0.00609455      -0.05640711       0.05461874       0.29624540       0.00000000
Ag      15.80827861      12.83820402      10.88792784      -0.71257764       0.52049638       2.99642799       0.00585949      -0.38516424       0.00649798       0.00082783       0.00000000
Ag      16.11760367      10.60363859      12.76989989      -0.34852790      -1.56351562       4.61156497       0.00518567      -0.14258135       0.26456808       0.42097004       0.00000000