38
Lattice="29.7 0.0 0.0 0.0 29.7 0.0 0.0 0.0 29.7" Properties=species:S:1:pos:R:3:momenta:R:3:c_unc:R:1:forces:R:3:magmoms:R:1 step=5.0 target_atoms="4 3 7 20 24 11 23 22 0 36 18 27 26 33 37 25 35 34" energy=-106.50613399 stress="0.0004261900661482927 0.00010190862098491558 0.00010139193637645671 0.00010190862098491558 0.0004542050861013288 0.0001713603022511412 0.00010139193637645671 0.0001713603022511412 0.00041926606048251234" dipole="_JSON [[0.0, 0.0, 0.0]]" magmom=1.6461959 free_energy=-106.60678545 pbc="T T T"
Ag      15.28307609      16.08991959      12.84877130       6.11364472      -2.99877465       5.34453042       0.01332150      -0.35385503      -0.88836109       0.51597316       0.00000000
Ag      17.28898609      14.68072524      13.91268933       3.03338156      -2.21328286       0.03618056       0.00951857       0.60458850      -0.41404902       0.40896965       0.00000000
Ag      16.07119950      11.73256881      13.74969179       2.57687438      -1.15814617       3.97805050       0.00851333       0.21150028      -1.13775380       1.29896133       0.00000000
Ag      16.30919463      18.54983455      15.43961186       0.99523667       1.15291675      -1.57358950       0.01039622      -0.81255229       0.01658319       0.62806538       0.00000000
Ag      15.70982578      15.79427988      15.86459455       0.97852629       0.05827143      -0.92137315       0.01013958       0.15143759       0.18877700       0.02301261       0.00000000
Ag      11.74248216      14.26925528      13.16458310       5.27448580      -2.41907980       0.61510499       0.00689240       0.49184471       0.49754102      -0.20716357       0.00000000
Ag      12.75163039      16.96993147      12.43141723      -2.28649893      -0.53502614       5.08785982       0.00811869      -0.22374864      -0.22255195       0.02975915       0.00000000
Ag      13.39921579      12.06830644      12.46155409       1.54331010       4.20247126      -2.11810882       0.01050211      -0.66886733      -0.98209220       1.04417917       0.00000000
Ag      10.80112714      12.86821730      15.21603872       4.78575834      -2.30490277      -1.89437926       0.00911156      -0.03491133      -0.15600490       0.73828680       0.00000000
Ag      14.19123182      13.74797785      14.53750043      -2.27618635      -0.75224186       2.40172145       0.00979615       0.72843211       1.37694403      -0.21389150       0.00000000
Ag      13.10080604      13.82434082      10.69473553       1.61267541       2.08785300       1.40489407       0.00851228       0.04220270       1.35217310      -0.75627690       0.00000000
Ag      13.60611171      11.39233539      15.33491018      -0.52653091       2.69764674      -0.24067598       0.01194439      -0.73896108      -1.06277812       0.73230493       0.00000000
Ag      16.60796895      12.96182735      16.21021282       5.09404938      -2.95145716       0.71006444       0.00933651       0.43957986      -0.84339396      -0.68251067       0.00000000
Ag      19.08774206      12.36465023      14.71642291      -2.16514417       1.47333114       0.61461579       0.00960676      -0.74982087      -0.92681715       1.11177825       0.00000000
Ag      18.05552838      12.64642186      12.36189561      -3.19939968      -1.69397246      -2.37078024       0.00812099       1.57939913       0.48244383      -1.19700771       0.00000000
Ag      15.71675764      12.99617079      11.36332182      -2.33408772      -3.60416291      -0.39716301       0.00817438      -0.97419800       0.44269185      -0.68590512       0.00000000
Ag      12.89414175      16.05871876      15.31375777      -5.20810407       0.31672888      -0.75805838       0.00751829       0.07083378       0.58852295      -0.88671444       0.00000000
Ag      11.96278574      14.90389344      17.56560838       1.23130529       0.37404856      -0.54864001       0.00971605      -0.21876178       0.04906546       0.57727705       0.00000000
Ag      13.86584897      17.37001869      17.58408220      -4.54549183      -1.14509725      -5.50951527       0.01473623       1.06254278       1.82391398      -1.29198268       0.00000000
Ag      14.69171069      13.94894810      17.74096778      -0.51763417       4.62914346      -3.59062410       0.00803740      -0.59154266      -0.08662736       0.22198949       0.00000000
Ag      17.77882354      17.39267258      13.49859502       1.95635511       0.17554399      -2.48692947       0.01052912       0.49220781      -0.60567624      -0.06603021       0.00000000
Ag      17.42351737      14.98650357      10.63248301      -2.88064350      -0.99099321       1.41787646       0.00973799       0.32319761       0.40071261       0.79441430       0.00000000
Ag      14.60760689      16.79838694      10.22424890       0.86122534       0.64977007       0.61789352       0.01297769      -0.91875121      -0.66349067      -0.11006016       0.00000000
Ag      13.38083151      19.03989708      14.59083516      -2.02227590       1.73221643       1.75344914       0.01255034       0.51375904      -0.82628456       0.53111412       0.00000000
Ag      15.50438951      18.65542639      12.51597732       1.62942226       1.78943604       0.70948175       0.01166079      -0.24514849       0.76607549       0.17575217       0.00000000
O       14.46816152      19.21791406      16.67378062       0.77883151       1.12043893      -0.95653236       0.25080938      -0.30447793      -1.40525919      -0.52734769       0.00000000
Cl      14.90929737      11.19837322      17.45302653      -2.94797082      -0.70804776      -2.14874890       0.03128014      -0.26374702       0.65284729      -0.16889950       0.00000000
Cl      16.81431885      17.66598245      10.26400676      -1.17873190       0.50037701       0.65743742       0.02661658       0.18536615       0.12935419      -0.29471397       0.00000000
O       12.63986835      15.86649948      10.37671480      -1.83755390       0.75569748       0.71247785       0.00309855       0.82289956       0.77224438       0.35176113       0.00000000
O       13.62493484      15.68774063      18.55481478       0.01423045      -1.49674106       0.16993095       0.00397521      -0.25199486      -1.27705913       0.31840652       0.00000000
Cl       9.82935501      14.13544557      16.91746354      -2.47837773      -1.42413623       0.38569842       0.00238846      -0.24733266       0.11397291      -0.03802513       0.00000000
O       11.82018740      11.57133539      14.07874638      -1.32000233       1.75661268       0.76845749       0.00724059       0.81945448      -0.08049461      -0.35844105       0.00000000
Cl      14.88534684      10.17401484      12.10792331      -2.61229161      -1.33934819      -2.26457410       0.00632357       0.29678539      -0.46160894      -0.22550768       0.00000000
Cl      18.61943055      16.60136568      15.90151998      -3.23189148      -0.67212497      -2.56720762       0.04850599      -0.53381098       0.27691016      -0.20813898       0.00000000
O       15.38441865      21.06184030      14.81247634       0.06610047      -0.05293259      -0.08457158       0.99999359       0.15469755      -0.14154434      -2.34168744       0.00000000
O       15.43426656      20.95133114      13.49049164       0.03662635      -0.07885489      -0.27735122       0.99993966      -0.02204894       0.27657954       1.95352993       0.00000000
O       18.88455183      15.18258602      12.41639956      -0.31881049      -0.82468443      -0.40084550       0.01455304      -1.14383567      -0.39350149      -0.13005877       0.00000000
O       17.55807175      10.68915139      15.54178291      -1.55120848       2.85700062       0.18278680       0.05107042       0.30763773       2.36799572      -1.06517200       0.00000000
38
Lattice="29.7 0.0 0.0 0.0 29.7 0.0 0.0 0.0 29.7" Properties=species:S:1:pos:R:3:momenta:R:3:c_unc:R:1:forces:R:3:magmoms:R:1 step=15.0 target_atoms="31 33 37 26 25 34 35" energy=-107.07128862 stress="0.0003341327560582515 0.00017593586521019844 0.00011083391661983738 0.00017593586521019844 0.0003773035083349033 8.527369468902939e-05 0.00011083391661983738 8.527369468902939e-05 0.00026562941593012164" dipole="_JSON [[0.0, 0.0, 0.0]]" magmom=1.8558433 free_energy=-107.17443873 pbc="T T T"
Ag      15.33622149      16.05886734      12.89959220       5.49948239      -3.75627173       5.76724719       0.00252453      -0.76221419      -0.44563160       0.22716338       0.00000000
Ag      17.31884400      14.65816135      13.91553404       3.50159245      -2.76641751       0.60810481       0.00954811       0.54696520      -0.44851826       0.58451548       0.00000000
Ag      16.09511301      11.71736544      13.79148452       2.61454074      -2.18174834       5.10501053       0.00735212      -0.13500193      -1.17750360       0.75780165       0.00000000
Ag      16.31390294      18.56125916      15.42863377       0.03259495       1.36693073      -0.85612682       0.00129571      -0.74200360      -0.06476220       0.54188207       0.00000000
Ag      15.71888242      15.79482358      15.85680991       0.95587154       0.04622667      -0.78870361       0.00171604       0.10208939       0.11477053      -0.02229470       0.00000000
Ag      11.79254117      14.24899497      13.16928951       5.69405965      -1.99600298       0.40622704       0.00679135       0.26170105       0.63408155      -0.23956013       0.00000000
Ag      12.73000082      16.96392602      12.47795636      -2.43001861      -0.79112553       5.12300136       0.00775825       0.00559230      -0.25586941      -0.06134771       0.00000000
Ag      13.40977586      12.10230392      12.44619865       0.80557126       3.19301016      -1.22234638       0.00250440      -0.57226596      -1.44208125       1.24813436       0.00000000
Ag      10.84267658      12.85024510      15.20422988       4.08073619      -1.32975847      -0.38311256       0.00965074      -1.33687188       1.34757731       2.28928784       0.00000000
Ag      14.17382715      13.74717384      14.55824392      -1.51253010       0.60728587       2.15961538       0.00877893       0.91323898       1.54342220      -0.18171640       0.00000000
Ag      13.11559209      13.84982724      10.70494965       1.61408864       3.58095683       0.79661543       0.00888363      -0.08049486       1.83220192      -0.99386313       0.00000000
Ag      13.59816621      11.41236247      15.33557953      -1.23952342       1.67277568       0.36789470       0.00319159      -1.02937865      -1.21574713       0.47754382       0.00000000
Ag      16.65590346      12.93164831      16.21479410       5.37779048      -3.56927715       0.35679814       0.00862723       0.01902285      -0.32913321      -0.32444081       0.00000000
Ag      19.06526032      12.37455315      14.72612463      -2.72355478       0.73601482       1.46612856       0.00885901      -0.60125271      -0.74563088       0.86483714       0.00000000
Ag      18.03385728      12.63362281      12.33559506      -1.55758045      -1.11733543      -3.39059500       0.00803215       1.61473975       0.43602542      -1.13530646       0.00000000
Ag      15.69161721      12.96567358      11.35713858      -3.16067710      -3.10502464      -0.95028950       0.00861384      -0.80872549       0.39385536      -0.67002226       0.00000000
Ag      12.84704187      16.06426546      15.30232253      -5.11753634       0.88834739      -1.75683733       0.00659608       0.12171731       0.53788079      -0.93379259       0.00000000
Ag      11.97175475      14.90690223      17.56297162       0.60033937       0.22615671      -0.08295125       0.00904944      -1.01024987      -0.31843871       0.33415582       0.00000000
Ag      13.82917629      17.36638994      17.52884140      -3.52904222       0.18034842      -6.49127374       0.00434632       0.95845302       0.83716440      -0.45617996       0.00000000
Ag      14.68575673      13.99076176      17.70831090      -0.72476365       4.46832023      -3.63214717       0.00784923      -0.13601169      -0.62804535      -0.10937629       0.00000000
Ag      17.79944774      17.39166991      13.47499554       2.54516682      -0.36776924      -2.73507222       0.00207143       0.37159961      -0.46865497      -0.18948928       0.00000000
Ag      17.39839073      14.97913964      10.64833867      -2.66062183      -0.63237230       2.03302614       0.00922862       0.19161831       0.36395856       0.62990548       0.00000000
Ag      14.61050420      16.80150980      10.23023677      -0.27848341       0.02569493       0.72983696       0.00284548      -1.30113323      -0.73088029       0.10158013       0.00000000
Ag      13.36405790      19.05169716      14.60950389      -1.65505721       0.85772500       2.33387714       0.00170455       0.46714346      -0.87827928       0.43319317       0.00000000
Ag      15.51805577      18.67627810      12.52317917       1.36599470       2.74272270       0.87712328       0.00174977      -0.28727856       0.45862115       0.17683952       0.00000000
O       14.49896034      19.22826880      16.61457508       0.20186398      -0.79085702      -0.94386888       0.02650707      -0.39266316      -1.37635256      -0.37079945       0.00000000
Cl      14.82347872      11.18787707      17.39316774      -3.26030111      -0.07353494      -2.12576414       0.02312980      -0.07382513       0.52976710       0.14957888       0.00000000
Cl      16.78793672      17.68160910      10.27755027      -0.70446534       0.63258314       0.31820152       0.00368839       0.35388171       0.16319412      -0.31117052       0.00000000
O       12.55809011      15.93015729      10.42986960      -0.77216121       1.26981010       1.02473152       0.00283516       1.14180211       0.45813538       0.37829781       0.00000000
O       13.62020372      15.57575153      18.57491267      -0.12536847      -1.86593732       0.42771143       0.00364006      -0.08741131       0.47313468       0.01741797       0.00000000
Cl       9.75946222      14.09755789      16.92762531      -2.45038513      -1.31471504       0.31786179       0.00111664       0.41662024       0.09764642      -0.23501162       0.00000000
O       11.77502941      11.65009740      14.09670659       0.05578942       0.50479474      -0.44041520       0.01273350       1.91718597      -1.41713834      -1.61796673       0.00000000
Cl      14.81656256      10.13227998      12.04392536      -2.36218764      -1.60556855      -2.31347001       0.00513718       0.33144381      -0.13664808       0.00995421       0.00000000
Cl      18.52360356      16.58677256      15.82931885      -3.59024013      -0.37463478      -2.56493362       0.01777626      -0.28409456       0.28694744       0.04536006       0.00000000
O       15.41232589      21.06579092      14.77731749       0.83463145       0.20834876      -0.64584935       0.05880622       0.10213052      -0.02752496      -1.72662938       0.00000000
O       15.42828675      20.94429862      13.47230955      -0.22528042      -0.17283705      -0.72869237       0.05916687       0.04290543       0.26271350       1.35333497       0.00000000
O       18.83383676      15.12561446      12.38014643      -1.27263371      -1.02358058      -0.80259583       0.00478531      -0.82392068      -0.39372743      -0.08867808       0.00000000
O       17.46984703      10.92190557      15.51881852      -1.28292840       4.59244970      -0.90431381       0.01942461       0.58494645       1.72946966      -0.95313825       0.00000000
38
Lattice="29.7 0.0 0.0 0.0 29.7 0.0 0.0 0.0 29.7" Properties=species:S:1:pos:R:3:momenta:R:3:c_unc:R:1:forces:R:3:magmoms:R:1 step=25.0 target_atoms="35 26 37 34 25" energy=-107.51115832 stress="0.00013097518542944402 0.0001890464359970269 6.34689513502106e-05 0.0001890464359970269 0.00016263265024419961 6.421240246823105e-05 6.34689513502106e-05 6.421240246823105e-05 -1.900791685800138e-05" dipole="_JSON [[0.0, 0.0, 0.0]]" magmom=1.75715 free_energy=-107.61678057 pbc="T T T"
Ag      15.38228112      16.02291537      12.95289262       4.57463193      -4.07679524       5.89139147       0.00497051      -1.07563047      -0.03756560      -0.05737576       0.00000000
Ag      17.35245478      14.63043306      13.92407505       3.83837111      -3.34720823       1.28504761       0.00986562       0.39204062      -0.51428216       0.82033938       0.00000000
Ag      16.11731762      11.69306686      13.84014427       2.11519579      -3.09697011       5.35125480       0.00692930      -0.96420518      -0.90282335      -0.67220022       0.00000000
Ag      16.31056306      18.57388245      15.42289575      -0.75185211       1.41299905      -0.45029040       0.00276263      -0.51772937      -0.21617140       0.32128486       0.00000000
Ag      15.72683675      15.79512328      15.85019538       0.76565317       0.01018185      -0.66191212       0.00371867       0.03580786       0.06463664      -0.02627898       0.00000000
Ag      11.84556032      14.23343355      13.17198664       5.90954760      -1.40723432       0.19558869       0.00695582       0.03428152       0.73712869      -0.22232994       0.00000000
Ag      12.70799130      16.95551665      12.52451770      -2.37926524      -1.04039320       5.10529674       0.00758464       0.16637464      -0.18023250      -0.01857814       0.00000000
Ag      13.41448273      12.12496326      12.43994198       0.25276037       1.72706308      -0.15202067       0.00435009      -0.43472059      -1.65956273       1.17240002       0.00000000
Ag      10.87401495      12.84500790      15.21083945       2.89541127       0.03434061       1.70129100       0.00841405      -0.90322659       0.63418636       1.61217711       0.00000000
Ag      14.16415529      13.75934813      14.57688256      -0.59711095       2.06044231       1.94599527       0.00859037       1.02768910       1.48243998      -0.10397063       0.00000000
Ag      13.12991031      13.89054548      10.70840748       1.52656126       5.37440024      -0.04574744       0.00891375      -0.10652012       1.94736831      -1.01507424       0.00000000
Ag      13.58279451      11.42250215      15.34057680      -2.17508552       0.55642552       0.65585171       0.00622170      -1.37849181      -1.22258207      -0.04036987       0.00000000
Ag      16.70434907      12.90008247      16.21821868       5.10487181      -2.98069962       0.56735582       0.00926445      -1.14620036       2.08130039       0.91396114       0.00000000
Ag      19.03966777      12.37901162      14.74195760      -2.69379950       0.36605585       1.90448420       0.00899844       0.27233709      -0.12512605       0.28262819       0.00000000
Ag      18.02681438      12.62592140      12.30028286      -0.03284718      -0.58589283      -4.34477180       0.00770519       1.44656764       0.32670253      -0.98946993       0.00000000
Ag      15.65981237      12.93930528      11.34622803      -3.77925257      -2.70153784      -1.42941025       0.00899325      -0.54458544       0.31720592      -0.59870644       0.00000000
Ag      12.80118800      16.07462823      15.28195369      -4.94266859       1.36760522      -2.70264881       0.00641805       0.13455600       0.45000249      -0.88695384       0.00000000
Ag      11.97176046      14.90720295      17.56326663      -0.67181100      -0.18816773       0.10911615       0.00865340      -1.41038202      -0.48610989       0.16862516       0.00000000
Ag      13.80103283      17.37039327      17.46859036      -2.68812582       0.52913522      -6.63578452       0.00606731       0.80042057      -0.04470157       0.17813920       0.00000000
Ag      14.67961389      14.02863267      17.67400697      -0.56559276       3.78230266      -3.94418595       0.00812576       0.31183338      -1.07156809      -0.44194043       0.00000000
Ag      17.82437020      17.38641877      13.44855521       2.88337987      -0.75809596      -3.09722303       0.00421067       0.18940119      -0.26544002      -0.35729081       0.00000000
Ag      17.37442129      14.97493750      10.66871937      -2.66428218      -0.29409168       2.36599404       0.00892889      -0.16690942       0.35285600       0.19407265       0.00000000
Ag      14.60217082      16.79887869      10.23806134      -1.52962678      -0.58212205       1.01489881       0.00464551      -1.20986420      -0.60271326       0.28510220       0.00000000
Ag      13.35064026      19.05550275      14.63234763      -1.30705581      -0.02780230       2.64245657       0.00374233       0.29512831      -0.92667836       0.15482882       0.00000000
Ag      15.52931045      18.70381682      12.53210791       1.11169340       3.25977572       1.07719929       0.00360069      -0.29824279       0.12012268       0.13717294       0.00000000
O       14.50046351      19.14105296      16.54454137      -0.13043657      -1.88332061      -1.32359866       0.06265840      -0.35659663      -0.74489068      -0.11619835       0.00000000
Cl      14.73068337      11.19257897      17.33863408      -3.39973977       0.35796001      -1.74611130       0.01788390       0.23080443       0.33266019       0.62310154       0.00000000
Cl      16.77517133      17.70124306      10.28198735      -0.23176897       0.78671314       0.00494163       0.00589573       0.32022713       0.12680921      -0.30142484       0.00000000
O       12.54805331      16.01682847      10.50198241       0.43683568       1.50382261       1.29575990       0.00311135       1.10712236       0.15406872       0.17049503       0.00000000
O       13.61139305      15.48738682      18.60473241      -0.16515215      -0.85545815       0.53958109       0.00328741      -0.18736303       1.50845284       0.04237871       0.00000000
Cl       9.69868345      14.06255374      16.93386019      -1.87099946      -1.21020640       0.12280031       0.00159100       0.77773111       0.10099910      -0.29667607       0.00000000
O       11.83142522      11.63004815      14.01880526       1.65107708      -0.96922343      -1.92415655       0.00533142       1.19786508      -0.56308020      -0.68787643       0.00000000
Cl      14.75448360      10.08846104      11.98106547      -2.11093691      -1.51609581      -2.21336915       0.00716355       0.39799179       0.08691655       0.14736611       0.00000000
Cl      18.42406687      16.58047135      15.76200314      -3.50443351      -0.07695273      -2.21547248       0.00779045       0.03475028       0.29981160       0.35255023       0.00000000
O       15.47216161      21.06799722      14.71492319       1.10117218      -0.13343137      -0.90184574       0.05431213       0.07965994       0.13524700      -0.51812241       0.00000000
O       15.41004822      20.94194706      13.43778351      -0.37417362       0.05038289      -0.84397509       0.01559614       0.07651987       0.18070874       0.21702470       0.00000000
O       18.73883796      15.05738239      12.31856173      -1.69533958      -1.18936280      -1.19183334       0.00810416      -0.16237964      -0.30709283       0.05632801       0.00000000
O       17.40485071      11.22407047      15.44131146      -0.75502338       4.70809703      -1.48919025       0.01981587       1.53393774      -1.56900317      -0.49913867       0.00000000
38
Lattice="29.7 0.0 0.0 0.0 29.7 0.0 0.0 0.0 29.7" Properties=species:S:1:pos:R:3:momenta:R:3:c_unc:R:1:forces:R:3:magmoms:R:1 step=40.0 target_atoms="27 1 31 13 37 33 32 26 34 25 35" energy=-106.83104183 stress="-0.0003051282384559434 8.300880082346536e-05 -2.2076929310289437e-05 8.300880082346536e-05 -1.685176880593763e-05 9.418995261873691e-05 -2.2076929310289437e-05 9.418995261873691e-05 -0.000446346938730714" dipole="_JSON [[0.0, 0.0, 0.0]]" magmom=1.63837 free_energy=-106.93994859 pbc="T T T"
Ag      15.43350950      15.96776781      13.03201916       2.89596001      -3.88768932       5.60148746       0.00851501      -1.30642536       0.41774795      -0.45504809       0.00000000
Ag      17.40684575      14.57878840      13.94975184       4.08715743      -4.19526847       2.48043902       0.01050313       0.21766551      -0.45585924       0.94044042       0.00000000
Ag      16.12951170      11.64432414      13.89871883      -0.70021380      -3.95683895       2.72602807       0.00706736      -2.53579570      -0.57876782      -2.88660744       0.00000000
Ag      16.29526592      18.59193079      15.41772971      -1.36740390       1.20000284      -0.41130106       0.00506267       0.12363210      -0.38995774      -0.14776462       0.00000000
Ag      15.73577584      15.79489157      15.84232628       0.55759022      -0.02573784      -0.48871070       0.00677889      -0.04454555       0.08925743       0.02790453       0.00000000
Ag      11.92593996      14.22102456      13.17330822       5.76868064      -0.40214092       0.02394255       0.00738420      -0.29332450       0.80244759      -0.13917794       0.00000000
Ag      12.67749347      16.94052512      12.59496283      -2.05270047      -1.06524047       5.28096375       0.00748374       0.31240256       0.08840302       0.31361572       0.00000000
Ag      13.41499591      12.13207606      12.44636240      -0.00016799      -0.62449130       0.85099597       0.00795349       0.17501184      -1.24843841       0.22535717       0.00000000
Ag      10.91000291      12.84724860      15.24290349       2.60463786       0.01961755       2.63910606       0.00731254       0.04908947      -0.46016687       0.20525667       0.00000000
Ag      14.16607947      13.80096341      14.60229056       0.87779146       3.92060416       1.81549545       0.00779725       1.04778967       0.95586446       0.05878926       0.00000000
Ag      13.15014601      13.98129269      10.69945138       1.47096560       7.77333391      -1.20125453       0.00814098       0.02539462       1.45151053      -0.65299219       0.00000000
Ag      13.53968584      11.41985470      15.34485293      -4.17848361      -0.86564793      -0.26330526       0.00989926      -1.55382111      -0.96001218      -0.85237482       0.00000000
Ag      16.75797588      12.89228596      16.24365473       2.50230941       2.24047735       3.48701834       0.00993314      -2.27941790       3.89782229       2.47796838       0.00000000
Ag      19.01730008      12.38733150      14.76563833      -0.03142030       1.09136974       1.34477088       0.01131777       2.42112989       0.92266746      -0.65305889       0.00000000
Ag      18.03868415      12.62181390      12.23291866       1.62477498      -0.08098372      -5.41003188       0.00696140       0.98476817       0.06785485      -0.64563872       0.00000000
Ag      15.60468875      12.90571446      11.32251961      -4.17954797      -2.24183477      -2.01740889       0.00918802      -0.08342982       0.21821275      -0.49540659       0.00000000
Ag      12.73548050      16.09690541      15.23673885      -4.68518566       1.83226690      -3.83572441       0.00626160       0.06215157       0.27413168      -0.58928974       0.00000000
Ag      11.94813755      14.89972817      17.56551905      -2.71194719      -0.88033303       0.22487882       0.00801988      -1.12922290      -0.37828540       0.22134112       0.00000000
Ag      13.76989511      17.36956352      17.38320101      -1.96511923      -0.96549651      -5.66928947       0.00721915       0.47346158      -1.18091178       1.06738522       0.00000000
Ag      14.67506527      14.07102075      17.61634496      -0.16833547       2.50105558      -4.40096444       0.00780096       0.10329133      -0.75004550      -0.18910728       0.00000000
Ag      17.86451841      17.37357262      13.40170379       2.89031015      -1.06026837      -3.80027128       0.00689069      -0.06814757       0.00411423      -0.60367189       0.00000000
Ag      17.33251537      14.97463855      10.69801150      -3.75944301       0.28117409       1.59320796       0.00915229      -1.24548589       0.46387638      -1.06146060       0.00000000
Ag      14.57240218      16.78686169      10.25594898      -2.50390606      -1.03001926       1.60813699       0.00746032       0.02036176      -0.01377055       0.38149546       0.00000000
Ag      13.33494028      19.04652966      14.66749468      -1.10025973      -1.25882868       2.33272293       0.00661019      -0.27281049      -0.82350612      -0.68160784       0.00000000
Ag      15.54261218      18.75067378      12.54830510       0.86330739       3.52147012       1.25503555       0.00628619      -0.26018170      -0.27059770       0.01124591       0.00000000
O       14.47950712      18.97369939      16.41286843      -0.21608113      -1.33076409      -1.41294308       0.04401505      -0.10138767       0.54919825       0.54087534       0.00000000
Cl      14.59958048      11.21471851      17.29783374      -2.70433978       0.63547165      -0.04695143       0.02292753       0.72005701       0.18013537       1.24662298       0.00000000
Cl      16.77488941      17.73755719      10.27451212       0.13764297       0.93309945      -0.33461283       0.01049673       0.02218499      -0.03966254      -0.25277166       0.00000000
O       12.65144317      16.15151360      10.62197903       1.53435455       1.30024377       1.17132029       0.00374135       0.11141069      -0.35630785      -0.48085765       0.00000000
O       13.58752918      15.50857480      18.65049263      -0.37409347       1.23866974       0.28893979       0.00330359      -0.25911151       1.23976282      -0.53400514       0.00000000
Cl       9.64664156      14.01606512      16.93280316      -0.60791126      -1.01500262      -0.14833198       0.00162871       0.84029754       0.13298428      -0.19736078       0.00000000
O       12.00157081      11.54065562      13.85227695       1.45990685      -0.63551757      -1.10147752       0.01104483      -0.63326910       0.38712368       1.32328063       0.00000000
Cl      14.68237590      10.03074511      11.88983178      -1.22056875      -1.29351493      -2.26122236       0.02082037       0.50602505       0.23512218       0.20450388       0.00000000