62
Lattice="40.7 0.0 0.0 0.0 40.7 0.0 0.0 0.0 40.7" Properties=species:S:1:pos:R:3:momenta:R:3:c_unc:R:1:forces:R:3:magmoms:R:1 step=5.0 target_atoms="25 45 55 0 1 2 53 7 56 58 59 61 60" energy=-160.83409123 stress="0.00028207554905796816 -6.030408804227635e-05 5.946217087628596e-06 -6.030408804227635e-05 0.00023972803935200205 -3.094667551399087e-05 5.946217087628596e-06 -3.094667551399087e-05 0.0003084889915277935" dipole="_JSON [[0.0, 0.0, 0.0]]" magmom=3.8525504 free_energy=-161.05536121 pbc="T T T"
Ag      19.32512038      21.37510318      21.37491000       0.05266877       0.04523923      -0.03966995       0.01696344      -0.14003103       0.09253047      -0.06883363       0.00000000
Ag      21.37499760      21.37499761      19.32502448      -0.00113936      -0.00128340       0.01059874       0.01697043       0.04028444      -0.06919262      -0.16547917       0.00000000
Ag      21.37509529      19.32520104      21.37517579       0.04192194       0.08830637       0.07730060       0.01697068       0.18369815      -0.06374151       0.09425066       0.00000000
Ag      21.37499220      23.42522824      21.37496196      -0.00338736       0.10001595      -0.01661220       0.00909111      -0.05191227       0.38078641      -0.14596564       0.00000000
Ag      21.37502127      21.37502532      23.42514250       0.00937729       0.01114855       0.06239315       0.00908937       0.00118245       0.10570569       0.28959918       0.00000000
Ag      17.27422976      21.37573583      19.32317103      -0.33562850       0.31956283      -0.79925596       0.00944799      -0.58263185       0.31241243      -0.96452415       0.00000000
Ag      19.32472885      23.42519344      19.32491757      -0.12006831       0.08440022      -0.03718146       0.00869355      -0.13610890       0.04636594       0.05010491       0.00000000
Ag      19.32490325      19.32492305      19.32505011      -0.04271535      -0.03385276       0.02199386       0.01728621      -0.12578065      -0.06358442       0.02911314       0.00000000
Ag      17.27449423      19.32462066      21.37573120      -0.22182568      -0.16661810       0.31899847       0.00913587      -0.38829962      -0.10511499       0.66408394       0.00000000
Ag      19.32431228      19.32444836      23.42549387      -0.30151196      -0.24240779       0.21691710       0.00938589      -0.65731764      -0.36167203       0.30972459       0.00000000
Ag      19.32462422      21.37539272      17.27457610      -0.16545920       0.17137437      -0.18485768       0.00909885      -0.62337158       0.40373510      -0.32926611       0.00000000
Ag      19.32476225      17.27470814      21.37498387      -0.10425128      -0.12818630      -0.00718003       0.00840398       0.02497738      -0.06988461      -0.05480471       0.00000000
Ag      23.42507226      21.37517833      21.37509084       0.03159743       0.07836620       0.03993993       0.00908991       0.23249810       0.10134581       0.10232960       0.00000000
Ag      23.42488080      19.32466031      19.32452605      -0.05247005      -0.14920768      -0.20807886       0.00967334      -0.30809755      -0.08565210      -0.15534463       0.00000000
Ag      21.37510336      19.32459369      17.27450176       0.04471386      -0.17821510      -0.21841943       0.00886430       0.01205144      -0.23327699      -0.24325875       0.00000000
Ag      21.37509089      17.27460727      19.32488266       0.03992344      -0.17235027      -0.05137776       0.00840386       0.02042600      -0.15392368       0.10520954       0.00000000
Ag      17.27521058      23.42531649      21.37504768       0.09262011       0.13895250       0.02099676       0.00424534       0.24063055       0.13509089       0.01662942       0.00000000
Ag      17.27474127      21.37453786      23.42538388      -0.11304544      -0.19946750       0.16843676       0.00502788       0.05735289      -0.44414302       0.33838442       0.00000000
Ag      19.32471351      23.42526032      23.42533027      -0.12580336       0.11436900       0.14494507       0.00373292      -0.03380530       0.11656209       0.15926040       0.00000000
Ag      23.42536450      23.42532504      19.32475628       0.15996863       0.14294505      -0.10720615       0.00368529       0.20957456       0.06077581       0.07492274       0.00000000
Ag      21.37491786      23.42463330      17.27487790      -0.03714086      -0.16483051      -0.05391721       0.00711167      -0.07685460      -0.36638362       0.04453189       0.00000000
Ag      23.42489591      17.27496866      21.37503720      -0.04574974      -0.01305677       0.01557724       0.00436635      -0.18640504       0.19202193       0.01281045       0.00000000
Ag      23.42571080      19.32446847      23.42565490       0.31075216      -0.23397922       0.28630846       0.00428908       0.60461786      -0.35678919       0.35023339       0.00000000
Ag      21.37494985      17.27520602      23.42508452      -0.02091984       0.09222707       0.03786631       0.00791278       0.07177724       0.35496543      -0.01528833       0.00000000
Ag      19.32527425      25.47477649      21.37495126       0.12046395      -0.09818848      -0.02134533       0.00238303       0.23604946      -0.28816504      -0.01716782       0.00000000
Ag      21.37526299      25.47460901      19.32479834       0.11605702      -0.17052557      -0.08962209       0.01004409      -0.05382139      -0.07987172       0.46512173       0.00000000
Ag      25.47511794      19.32497557      21.37517058       0.05170985      -0.01069668       0.07490830       0.00260010      -0.20875249       0.07004313       0.08290546       0.00000000
Ag      19.32524189      21.37510084      25.47484784       0.10638125       0.04435588      -0.06677056       0.00238428       0.16299745       0.09823130      -0.31898644       0.00000000
Ag      21.37488153      19.32512731      25.47476284      -0.05216129       0.05592031      -0.10420835       0.00241683      -0.07189525       0.12324316      -0.32157725       0.00000000
Ag      23.42513011      25.47510220      21.37545967       0.05684540       0.04479170       0.20118375       0.00254667       0.11685261      -0.03814087       0.18738510       0.00000000
Ag      23.42565971      23.42585408      23.42559958       0.28914586       0.37393568       0.26300072       0.00423520       0.23991677       0.32542509       0.33218740       0.00000000
Ag      21.37518421      25.47500520      23.42500190       0.08015889       0.00215047       0.00070029       0.00295918       0.05485469      -0.14146255       0.04384777       0.00000000
Ag      23.42532436      21.37460795      25.47504379       0.14138827      -0.17111003       0.01970420       0.00321228       0.33332025      -0.36190527      -0.10862751       0.00000000
Ag      21.37508926      23.42469196      25.47481132       0.03925035      -0.13545508      -0.08286468       0.00165658       0.01660207      -0.29979847      -0.24212536       0.00000000
Ag      25.47509572      21.37459556      23.42520398       0.04276570      -0.17538733       0.08741775       0.00316501      -0.00064516      -0.41834876       0.11091549       0.00000000
Ag      23.42486741      21.37510210      17.27498748      -0.05822310       0.04475596      -0.00550422       0.00361635      -0.10292274       0.10282907       0.11189103       0.00000000
Ag      25.47488589      23.42450598      21.37493659      -0.05014343      -0.21682444      -0.02751276       0.00173475      -0.16489733      -0.31174622       0.05243496       0.00000000
Ag      25.47492522      21.37505351      19.32500736      -0.03292121       0.02349718       0.00327968       0.00315989      -0.31797684       0.10505121       0.04080945       0.00000000
Ag      15.22504222      21.37486117      21.37474947       0.01858307      -0.06096832      -0.11022610       0.00477064       0.25316748       0.01811581      -0.14881534       0.00000000
Ag      15.22541888      19.32632591      19.32529299       0.18325062       0.57868907       0.12884406       0.00871280       0.45427187       1.16046685       0.32400445       0.00000000
Ag      17.27456197      19.32611294      17.27440561      -0.19101236       0.48700773      -0.25927675       0.00534721      -0.19595922       0.43152357      -0.38538717       0.00000000
Ag      17.27533149      17.27458992      19.32520229       0.14470910      -0.17968836       0.08837470       0.00527150       0.45283690      -0.24988354      -0.05564113       0.00000000
Ag      19.32574412      17.27426669      17.27379467       0.32533331      -0.32028763      -0.52757019       0.00516064       0.36157160      -0.46961530      -0.74622714       0.00000000
Ag      21.37479324      21.37479695      15.22545894      -0.09081736      -0.08910857       0.20160877       0.00407427      -0.07269573      -0.09795914       0.44219116       0.00000000
Ag      19.32586350      19.32396936      15.22481502       0.37651293      -0.44891202      -0.07943486       0.00896537       0.59948857      -0.70786797       0.05998143       0.00000000
Ag      21.37505025      15.22555308      21.37505631       0.02190157       0.24323437       0.02239376       0.01076277      -0.52575167       0.30659539      -0.72285490       0.00000000
Ag      19.32509780      15.22537976      19.32509276       0.04283260       0.16682960       0.04066722       0.00791419      -0.01319571       0.26066861       0.01380367       0.00000000
Ag      15.22546507      17.27498543      17.27400404       0.20405171      -0.00609387      -0.43517772       0.00376710       0.64358689      -0.14179590      -1.00069626       0.00000000
Ag      17.27513156      17.27512152      15.22548192       0.05906929       0.05354347       0.21192283       0.00240039      -0.02904242       0.01819283       0.55994951       0.00000000
Ag      17.27528571      15.22533603      17.27511395       0.12538345       0.14751767       0.05018117       0.00168954       0.19113441       0.31184493       0.05962865       0.00000000
Cl      14.63293895      17.02565386      19.61511703      -0.35936881      -0.47303822       0.36981747       0.00293167      -0.88907897      -0.92202897       0.62181670       0.00000000
Cl      15.05414767      23.70139914      22.47267226      -0.00463449      -0.12426524      -0.03609467       0.00166451      -0.04197684      -0.27631783      -0.07627735       0.00000000
Cl      25.75208473      18.42734180      18.91887536       0.04076513       0.11095447       0.06846217       0.00453144       0.44846637       0.03173724       0.02581799       0.00000000
Cl      24.46525009      25.94211953      24.02085641      -0.44503627      -0.33741041      -0.36324491       0.01720838      -0.57127013      -0.38292121      -0.60040873       0.00000000
O       16.80104600      19.20999708      23.64489200       0.52720182       0.39668714      -0.47645702       0.00172118       1.04353723       0.74418614      -0.97062379       0.00000000
O       20.47782612      17.30136487      15.18029535      -0.72348719       0.77057715       0.74744522       0.01228195      -1.25623269       1.20805667       1.12301447       0.00000000
O       16.74555673      22.21773159      17.13187072       0.47167820      -0.83428707       0.79657024       0.04516874       1.14620868      -1.10847997       1.08240069       0.00000000
O       25.10288976      19.78441016      24.97733891      -0.49581270       0.52923698      -0.44670925       0.00125279      -0.99014185       1.09992941      -0.71905414       0.00000000
O       21.62388576      26.54079944      17.12752166      -0.31301638       0.78837621       0.07025860       0.06848894      -0.81365903       1.34971307       0.96146129       0.00000000
O       22.18809577      25.48167259      16.70895975       0.27169696      -0.59142492       0.15592222       0.07467302       0.97765846      -1.24994089      -1.24255092       0.00000000
O       22.71078883      15.14255067      23.59171609       0.24972914       0.36474355      -0.19783554       0.11875080       1.96491473       1.81896073       0.93534886       0.00000000
O       21.80163834      14.28356736      23.40708993      -0.38265819      -0.48658427       0.02867612       0.08940435      -1.76597604      -1.96750389      -0.45831920       0.00000000
62
Lattice="40.7 0.0 0.0 0.0 40.7 0.0 0.0 0.0 40.7" Properties=species:S:1:pos:R:3:momenta:R:3:c_unc:R:1:forces:R:3:magmoms:R:1 step=15.0 target_atoms="59 58 60 61" energy=-161.80765067 stress="0.00031895685741864993 -4.5145322345225425e-05 9.060979801809376e-06 -4.5145322345225425e-05 0.00032501524690828896 -1.1048794352748054e-05 9.060979801809376e-06 -1.1048794352748054e-05 0.0003079410744076687" dipole="_JSON [[0.0, 0.0, 0.0]]" magmom=3.0425874 free_energy=-162.02879131 pbc="T T T"
Ag      19.32541947      21.37603221      21.37422001       0.01731288       0.16220260      -0.11841997       0.00021338      -0.15798004       0.08679732      -0.06253487       0.00000000
Ag      21.37505003      21.37504425      19.32455022       0.01170900       0.00830822      -0.11604752       0.00014467       0.04036972      -0.07488960      -0.17573324       0.00000000
Ag      21.37594404      19.32611494      21.37666127       0.14505063       0.11308733       0.24950710       0.00014868       0.18836095      -0.07634778       0.10284512       0.00000000
Ag      21.37483094      23.42742302      21.37455537      -0.03168053       0.37770722      -0.07175905       0.00532695      -0.05026355       0.35892244      -0.15767884       0.00000000
Ag      21.37509053      21.37513415      23.42668389       0.00631851       0.01297596       0.27241859       0.00531814       0.00818839       0.10179889       0.27206183       0.00000000
Ag      17.26913930      21.38008816      19.31133585      -0.77644677       0.61530200      -1.73482164       0.00794848      -0.55903716       0.26117625      -0.81835714       0.00000000
Ag      19.32263451      23.42619376      19.32438405      -0.34308912       0.13136970      -0.08445235       0.00715818      -0.13361643       0.03088234       0.05489804       0.00000000
Ag      19.32398346      19.32416779      19.32532052      -0.16164096      -0.13216003       0.03754990       0.00027441      -0.13560771      -0.07063874       0.02865819       0.00000000
Ag      17.27089335      19.32216414      21.38081907      -0.56175748      -0.37222875       0.75951918       0.00762571      -0.32765147      -0.06576576       0.39277929       0.00000000
Ag      19.31923602      19.32045463      23.42907311      -0.80301797      -0.63452166       0.56710018       0.00789423      -0.56041600      -0.35518507       0.28614698       0.00000000
Ag      19.32133620      21.37825608      17.27166716      -0.58693396       0.46754632      -0.45985977       0.00748894      -0.67481213       0.46191456      -0.33425971       0.00000000
Ag      19.32347556      17.27275028      21.37445299      -0.17637716      -0.30097048      -0.11038558       0.00673209       0.04088335      -0.06484464      -0.05291985       0.00000000
Ag      23.42606083      21.37652152      21.37572326       0.18278946       0.21687366       0.09925002       0.00532340       0.21461320       0.09294595       0.10001191       0.00000000
Ag      23.42348308      19.32243104      19.32128077      -0.25531954      -0.34035173      -0.50331823       0.00843331      -0.30498264      -0.08801601      -0.13958436       0.00000000
Ag      21.37556612      19.32221718      17.27124695       0.05453977      -0.33523888      -0.48421531       0.00735740       0.02974663      -0.20933400      -0.19561180       0.00000000
Ag      21.37545213      17.27187872      19.32454616       0.03933893      -0.42377288      -0.02083236       0.00672808       0.01981264      -0.13629375       0.11406193       0.00000000
Ag      17.27738878      23.42738931      21.37534938       0.38655715       0.31558147       0.04625762       0.00418861       0.23482991       0.11721802       0.02354746       0.00000000
Ag      17.27325836      21.37138392      23.42801528      -0.20252406      -0.43582469       0.40548607       0.00469979       0.15841273      -0.05857639       0.29167492       0.00000000
Ag      19.32281390      23.42694052      23.42753942      -0.29055840       0.25509026       0.33832263       0.00346039      -0.04478919       0.11511741       0.15733625       0.00000000
Ag      23.42797647      23.42734988      19.32335375       0.41180647       0.30314986      -0.20353705       0.00340656       0.19173529       0.05717008       0.07965422       0.00000000
Ag      21.37421149      23.42109748      17.27438012      -0.14981506      -0.67253032      -0.04463128       0.00538961      -0.05099051      -0.17884048       0.01773821       0.00000000
Ag      23.42358421      17.27521858      21.37527834      -0.24034392       0.08033553       0.02499162       0.00429588      -0.18705047       0.15875171       0.02965257       0.00000000
Ag      23.43073281      19.32054534      23.43023745       0.76457127      -0.63552945       0.69458263       0.00382005       0.41600073      -0.38854839       0.16022878       0.00000000
Ag      21.37472240      17.27821628      23.42519917       0.00211082       0.54297744       0.00068592       0.00576551       0.15482553       0.11821490       0.00264536       0.00000000
Ag      19.32755164      25.47253637      21.37452874       0.37909959      -0.39357810      -0.07038378       0.00233347       0.23208484      -0.28086462      -0.00069753       0.00000000
Ag      21.37603976      25.47246223      19.32578702       0.06156074      -0.26694236       0.26634495       0.00058651       0.00796310       0.03122105       0.18433720       0.00000000
Ag      25.47552676      19.32490792      21.37645962       0.03691150      -0.00411140       0.20659972       0.00262026      -0.21343426       0.07007191       0.05902049       0.00000000
Ag      19.32731005      21.37590863      25.47321733       0.34889671       0.13347082      -0.29026171       0.00232584       0.16037776       0.11486201      -0.30544011       0.00000000
Ag      21.37387773      19.32624435      25.47242958      -0.16934043       0.18923748      -0.40836338       0.00239122      -0.08143881       0.14579570      -0.30796129       0.00000000
Ag      23.42578408      25.47536550      21.37861238       0.08397694       0.01299133       0.48190275       0.00247669       0.10133822      -0.05099123       0.16541145       0.00000000
Ag      23.43004400      23.43124515      23.42969700       0.66821329       0.79876827       0.63417374       0.00419722       0.20959271       0.27516482       0.32208571       0.00000000
Ag      21.37633621      25.47457450      23.42480763       0.16628571      -0.09716615      -0.04392196       0.00298446       0.04355260      -0.14015756       0.04074316       0.00000000
Ag      23.42767809      21.37162478      25.47510378       0.35367819      -0.46237097       0.00125146       0.00290805       0.16665201      -0.19736046      -0.06566483       0.00000000
Ag      21.37581381      23.42213957      25.47294898       0.12024206      -0.42665991      -0.32548947       0.00165265       0.02631792      -0.31047362      -0.22372463       0.00000000
Ag      25.47560973      21.37170915      23.42641923       0.08218862      -0.41803211       0.14021820       0.00292718       0.06646546      -0.16234587      -0.14733407       0.00000000
Ag      23.42339094      21.37587432      17.27535387      -0.26586866       0.12357656       0.08542709       0.00353900      -0.08309420       0.08388047       0.12492618       0.00000000
Ag      25.47345767      23.42086075      21.37485616      -0.26269437      -0.58314681       0.01164190       0.00174572      -0.14144768      -0.31372248       0.05303339       0.00000000
Ag      25.47383834      21.37550133      19.32521508      -0.20638695       0.07465939       0.04288257       0.00313093      -0.31107340       0.09705801       0.03162070       0.00000000
Ag      15.22574586      21.37392881      21.37282697       0.13525801      -0.14222884      -0.31529935       0.00450500       0.25807395       0.04246658      -0.15395166       0.00000000
Ag      15.22902284      19.33636893      19.32767009       0.59827717       1.57736517       0.39350526       0.00844254       0.39469056       0.85724663       0.32517357       0.00000000
Ag      17.27175235      19.33351827      17.27029986      -0.42172459       1.12175484      -0.63389712       0.00524203      -0.24872034       0.48353754      -0.37273960       0.00000000
Ag      17.27827215      17.27171788      19.32627938       0.48672123      -0.44547314       0.14243075       0.00509092       0.36326108      -0.21169222      -0.08898858       0.00000000
Ag      19.33072970      17.26904216      17.26532485       0.74529339      -0.81874314      -1.28653336       0.00499866       0.21262158      -0.47694822      -0.45530419       0.00000000
Ag      21.37326221      21.37330752      15.22945238      -0.24520838      -0.23648166       0.67509743       0.00370285      -0.08817461      -0.08673488       0.43682616       0.00000000
Ag      19.33193844      19.31696759      15.22400141       0.91798509      -1.02087316      -0.09224531       0.00874433       0.46229635      -0.40038430       0.02755970       0.00000000
Ag      21.37262698      15.22998795      21.37173028      -0.54744724       0.72385330      -0.76176407       0.00093511      -0.36004426       0.16710084      -0.30444045       0.00000000
Ag      19.32584185      15.22880887      19.32583128       0.11766256       0.58604676       0.11945991       0.00782692      -0.01896248       0.25536832      -0.00172564       0.00000000
Ag      15.22936032      17.27477788      17.26627648       0.64683259      -0.03611361      -1.22870675       0.00358144       0.59106770      -0.12914028      -0.78350340       0.00000000
Ag      17.27604534      17.27598565      15.22954900       0.13657796       0.13680283       0.68284878       0.00242738      -0.06907668       0.03054110       0.55560011       0.00000000
Ag      17.27742147      15.22818283      17.27590546       0.34156665       0.47607447       0.12565846       0.00164527       0.18945505       0.29404553       0.08052276       0.00000000
Cl      14.61344499      17.00055027      19.63467623      -1.01732637      -1.29792386       1.00886129       0.00280657      -0.68885710      -0.64474204       0.38900748       0.00000000
Cl      15.05362889      23.69461949      22.47081671      -0.03331642      -0.36351929      -0.09705998       0.00163577      -0.05034752      -0.26910112      -0.06819345       0.00000000
Cl      25.75494862      18.43306160      18.92236045       0.16660380       0.30208705       0.18262628       0.00430144       0.45975643       0.02851479       0.01819181       0.00000000
Cl      24.44445857      25.92630878      24.00234849      -1.04372224      -0.79459432      -0.96457402       0.00276953      -0.53327447      -0.33048549      -0.56261853       0.00000000
O       16.86470097      19.25491499      23.58903334       1.51654227       1.00213135      -1.29408506       0.00170557       0.79849981       0.30059072      -0.63628855       0.00000000
O       20.39742689      17.38405218      15.26263928      -1.82434422       1.84072677       1.87225251       0.00648881      -0.93709229       0.88903894       0.82918948       0.00000000
O       16.80533677      22.13015359      17.21532490       1.50577031      -1.98694265       1.86644071       0.00829727       1.22898143      -1.18858725       0.93486661       0.00000000
O       25.04424711      19.84683775      24.92584266      -1.37644515       1.45376844      -1.17231217       0.00184115      -0.69082711       0.75499222      -0.30935797       0.00000000
O       21.60101438      26.59669964      17.14131893      -0.21174238       0.55298176       0.25701629       0.06349376       0.79844206      -1.92715944      -0.07505890       0.00000000
O       22.21418702      25.44278798      16.70486507       0.38467948      -0.16871303      -0.13447028       0.05581697      -0.71489506       1.73831027       0.10543457       0.00000000
O       22.74880026      15.17856604      23.60179883       0.46884272       0.39152649       0.42345976       0.06772850      -1.20883080      -0.85075601       0.08274296       0.00000000
O       21.76634528      14.22902760      23.40319071      -0.28669914      -0.85358726      -0.04412339       0.09424140       1.15751868       1.11821040      -0.08056137       0.00000000
62
Lattice="40.7 0.0 0.0 0.0 40.7 0.0 0.0 0.0 40.7" Properties=species:S:1:pos:R:3:momenta:R:3:c_unc:R:1:forces:R:3:magmoms:R:1 step=120.0 target_atoms="56 60 61 59 58" energy=-161.99210154 stress="-0.00011508165679507586 -6.98706612908279e-05 -5.191712256946198e-06 -6.98706612908279e-05 -0.00018531368898127415 -9.859058480152302e-05 -5.191712256946198e-06 -9.859058480152302e-05 -0.00023133633657376109" dipole="_JSON [[0.0, 0.0, 0.0]]" magmom=2.8290615 free_energy=-162.15715129 pbc="T T T"
Ag      19.33922656      21.41638142      21.34947929       0.47338313       0.03364455       0.10871095       0.00462877       0.00538486      -0.16016361       0.17685502       0.00000000
Ag      21.36948908      21.33821873      19.27454042      -0.45358272      -0.94820199      -0.15895213       0.00404174      -0.10067432      -0.12644357       0.20635918       0.00000000
Ag      21.41385621      19.36704698      21.45010663       0.20071052       0.84446719       0.67888493       0.00339755      -0.03154780      -0.03026659      -0.21281273       0.00000000
Ag      21.38021888      23.47746610      21.35643963       0.68565069      -0.94644822       0.22921354       0.00558688       0.33578438      -0.72803804       0.31772670       0.00000000
Ag      21.39712842      21.38796675      23.44293217       0.60477821       0.25091847      -1.29179414       0.00638099       0.05119379       0.07699950      -0.59900079       0.00000000
Ag      17.18641967      21.42078647      19.47797524       1.67155615       0.21362925      -0.79194535       0.00804337       0.58043146      -0.10772275      -0.92924093       0.00000000
Ag      19.25953679      23.44328169      19.31946742      -0.65877569      -0.34821524      -0.56498295       0.00726275       0.06370263      -0.17276044      -0.20757426       0.00000000
Ag      19.28143293      19.28451143      19.30837381      -0.73475927       0.17519531      -1.05079351       0.00654462      -0.13319724       0.23192903      -0.11727028       0.00000000
Ag      17.17556473      19.19915120      21.32389835      -0.01729940      -1.86139537       1.93564125       0.00892795       0.29239149      -0.04170785      -0.33825910       0.00000000
Ag      19.39640399      19.12137747      23.56962615      -1.25655913      -2.29397162       0.87385614       0.00773055      -0.75704020       0.16140300      -0.36875255       0.00000000
Ag      19.46020913      21.55205411      17.15628016      -2.27937285       1.84127159       0.02461480       0.00828109      -2.12825993      -0.26397399       0.36687575       0.00000000
Ag      19.27058796      17.25264791      21.35613886      -1.34551979       1.19397535       0.53582044       0.00733362      -0.10641060       0.46275360       0.20741781       0.00000000
Ag      23.43383189      21.42227029      21.41576859      -1.11332558      -0.08271605       0.56874068       0.00577949      -0.49355006      -0.27513334      -0.10143488       0.00000000
Ag      23.32445547      19.22161723      19.18264070      -0.98730104      -1.44368192      -1.67495954       0.00860741       0.21514629       0.15617771       0.20901315       0.00000000
Ag      21.37509828      19.17719686      17.18296178       1.91519897      -0.53342098       1.92679193       0.00902102       2.70688097       3.15865720       3.74609737       0.00000000
Ag      21.38671031      17.22798351      19.30475335       0.33229611       0.81538172      -1.11887655       0.00822098       0.06377659       0.33030923      -0.07219328       0.00000000
Ag      17.40139030      23.52874992      21.40361243       0.95563801       1.65839410       0.75868675       0.00426292      -0.52512685      -0.17689158       0.11340811       0.00000000
Ag      17.27572969      21.50533594      23.52368105       0.27413941      -0.33697587       1.02937113       0.00486331       0.28702157       0.55680209      -0.05762248       0.00000000
Ag      19.27170667      23.52395479      23.51942001      -0.45267612       1.65345071       1.29916314       0.00397215      -0.00551330       0.03855135       0.06564589       0.00000000
Ag      23.53804346      23.50988376      19.28472736       1.27337566       1.19766923      -0.90945885       0.00382533      -0.07264588      -0.13848673      -0.13768970       0.00000000
Ag      21.38999943      23.38928371      17.28274393       1.37612276       1.99097552       0.28110821       0.00759866       0.26052608       0.50558678       0.10805275       0.00000000
Ag      23.33121278      17.30784356      21.37434642      -1.14061368       0.01867731      -0.29790055       0.00439046       0.19888879       0.01156484      -0.13677647       0.00000000
Ag      23.50187107      19.08208879      23.47621366       2.38386709      -1.92075670       1.85857858       0.00361063       0.13042727       0.05192878      -0.16107511       0.00000000
Ag      21.40833140      17.30852732      23.42782069       0.41997518      -1.35057743       0.13488084       0.00618294      -0.05505516      -0.45078602       0.13508137       0.00000000
Ag      19.45182285      25.34820641      21.37379782       1.41520392      -0.92458923       0.38716852       0.00346971      -0.27983684       0.52947524       0.16479900       0.00000000
Ag      21.39653389      25.36550249      19.45232193       0.21728401      -0.98178182       1.13418240       0.00563231       0.00235877      -0.02706159      -0.42052104       0.00000000